    1C
    1UUSER                                                              
    1UDATE              10.november.2013                                
    1UTIME              20:02:25                                        
    1UHOST                                                              
    1UPGM               CalculiX                                        
    1UDIR                                                               
    1UDBN                                                               
    2C                           171                                     1
 -1         1 1.00000E+01 5.00000E-01-5.00000E-01
 -1         2 1.00000E+01 0.00000E+00-5.00000E-01
 -1         3 1.00000E+01 0.00000E+00 0.00000E+00
 -1         4 1.00000E+01 5.00000E-01 0.00000E+00
 -1         5 8.00000E+00 5.00000E-01-5.00000E-01
 -1         6 8.00000E+00 0.00000E+00-5.00000E-01
 -1         7 8.00000E+00 0.00000E+00 0.00000E+00
 -1         8 8.00000E+00 5.00000E-01-1.38778E-17
 -1         9 1.00000E+01 2.50000E-01-5.00000E-01
 -1        10 1.00000E+01 0.00000E+00-2.50000E-01
 -1        11 1.00000E+01 2.50000E-01 0.00000E+00
 -1        12 1.00000E+01 5.00000E-01-2.50000E-01
 -1        13 9.00000E+00 5.00000E-01-5.00000E-01
 -1        14 9.00000E+00 0.00000E+00-5.00000E-01
 -1        15 9.00000E+00 0.00000E+00 0.00000E+00
 -1        16 9.00000E+00 5.00000E-01-6.93889E-18
 -1        17 8.00000E+00 2.50000E-01-5.00000E-01
 -1        18 8.00000E+00 0.00000E+00-2.50000E-01
 -1        19 8.00000E+00 2.50000E-01 0.00000E+00
 -1        20 8.00000E+00 5.00000E-01-2.50000E-01
 -1        21 1.00000E+01 0.00000E+00 5.00000E-01
 -1        22 1.00000E+01 5.00000E-01 5.00000E-01
 -1        23 8.00000E+00 0.00000E+00 5.00000E-01
 -1        24 8.00000E+00 5.00000E-01 5.00000E-01
 -1        25 1.00000E+01 0.00000E+00 2.50000E-01
 -1        26 1.00000E+01 2.50000E-01 5.00000E-01
 -1        27 1.00000E+01 5.00000E-01 2.50000E-01
 -1        28 9.00000E+00 0.00000E+00 5.00000E-01
 -1        29 9.00000E+00 5.00000E-01 5.00000E-01
 -1        30 8.00000E+00 0.00000E+00 2.50000E-01
 -1        31 8.00000E+00 2.50000E-01 5.00000E-01
 -1        32 8.00000E+00 5.00000E-01 2.50000E-01
 -1        33 6.00000E+00 5.00000E-01-5.00000E-01
 -1        34 6.00000E+00 0.00000E+00-5.00000E-01
 -1        35 6.00000E+00 0.00000E+00 0.00000E+00
 -1        36 6.00000E+00 5.00000E-01 0.00000E+00
 -1        37 7.00000E+00 5.00000E-01-5.00000E-01
 -1        38 7.00000E+00 0.00000E+00-5.00000E-01
 -1        39 7.00000E+00 0.00000E+00 0.00000E+00
 -1        40 7.00000E+00 5.00000E-01 1.38778E-17
 -1        41 6.00000E+00 2.50000E-01-5.00000E-01
 -1        42 6.00000E+00 0.00000E+00-2.50000E-01
 -1        43 6.00000E+00 2.50000E-01 0.00000E+00
 -1        44 6.00000E+00 5.00000E-01-2.50000E-01
 -1        45 6.00000E+00 0.00000E+00 5.00000E-01
 -1        46 6.00000E+00 5.00000E-01 5.00000E-01
 -1        47 7.00000E+00 0.00000E+00 5.00000E-01
 -1        48 7.00000E+00 5.00000E-01 5.00000E-01
 -1        49 6.00000E+00 0.00000E+00 2.50000E-01
 -1        50 6.00000E+00 2.50000E-01 5.00000E-01
 -1        51 6.00000E+00 5.00000E-01 2.50000E-01
 -1        52 4.00000E+00 5.00000E-01-5.00000E-01
 -1        53 4.00000E+00 0.00000E+00-5.00000E-01
 -1        54 4.00000E+00 0.00000E+00 0.00000E+00
 -1        55 4.00000E+00 5.00000E-01 0.00000E+00
 -1        56 5.00000E+00 5.00000E-01-5.00000E-01
 -1        57 5.00000E+00 0.00000E+00-5.00000E-01
 -1        58 5.00000E+00 0.00000E+00 0.00000E+00
 -1        59 5.00000E+00 5.00000E-01 0.00000E+00
 -1        60 4.00000E+00 2.50000E-01-5.00000E-01
 -1        61 4.00000E+00 0.00000E+00-2.50000E-01
 -1        62 4.00000E+00 2.50000E-01 0.00000E+00
 -1        63 4.00000E+00 5.00000E-01-2.50000E-01
 -1        64 4.00000E+00 0.00000E+00 5.00000E-01
 -1        65 4.00000E+00 5.00000E-01 5.00000E-01
 -1        66 5.00000E+00 0.00000E+00 5.00000E-01
 -1        67 5.00000E+00 5.00000E-01 5.00000E-01
 -1        68 4.00000E+00 0.00000E+00 2.50000E-01
 -1        69 4.00000E+00 2.50000E-01 5.00000E-01
 -1        70 4.00000E+00 5.00000E-01 2.50000E-01
 -1        71 2.00000E+00 5.00000E-01-5.00000E-01
 -1        72 2.00000E+00-1.38778E-17-5.00000E-01
 -1        73 2.00000E+00-1.38778E-17 0.00000E+00
 -1        74 2.00000E+00 5.00000E-01 0.00000E+00
 -1        75 3.00000E+00 5.00000E-01-5.00000E-01
 -1        76 3.00000E+00 1.38778E-17-5.00000E-01
 -1        77 3.00000E+00 1.38778E-17 0.00000E+00
 -1        78 3.00000E+00 5.00000E-01 0.00000E+00
 -1        79 2.00000E+00 2.50000E-01-5.00000E-01
 -1        80 2.00000E+00-1.38778E-17-2.50000E-01
 -1        81 2.00000E+00 2.50000E-01 0.00000E+00
 -1        82 2.00000E+00 5.00000E-01-2.50000E-01
 -1        83 2.00000E+00-1.38778E-17 5.00000E-01
 -1        84 2.00000E+00 5.00000E-01 5.00000E-01
 -1        85 3.00000E+00 1.38778E-17 5.00000E-01
 -1        86 3.00000E+00 5.00000E-01 5.00000E-01
 -1        87 2.00000E+00-1.38778E-17 2.50000E-01
 -1        88 2.00000E+00 2.50000E-01 5.00000E-01
 -1        89 2.00000E+00 5.00000E-01 2.50000E-01
 -1        90 0.00000E+00 5.00000E-01-5.00000E-01
 -1        91 0.00000E+00 0.00000E+00-5.00000E-01
 -1        92 0.00000E+00 0.00000E+00 0.00000E+00
 -1        93 0.00000E+00 5.00000E-01 0.00000E+00
 -1        94 1.00000E+00 5.00000E-01-5.00000E-01
 -1        95 1.00000E+00-6.93889E-18-5.00000E-01
 -1        96 1.00000E+00-6.93889E-18 0.00000E+00
 -1        97 1.00000E+00 5.00000E-01 0.00000E+00
 -1        98 0.00000E+00 2.50000E-01-5.00000E-01
 -1        99 0.00000E+00 0.00000E+00-2.50000E-01
 -1       100 0.00000E+00 2.50000E-01 0.00000E+00
 -1       101 0.00000E+00 5.00000E-01-2.50000E-01
 -1       102 0.00000E+00 0.00000E+00 5.00000E-01
 -1       103 0.00000E+00 5.00000E-01 5.00000E-01
 -1       104 1.00000E+00-6.93889E-18 5.00000E-01
 -1       105 1.00000E+00 5.00000E-01 5.00000E-01
 -1       106 0.00000E+00 0.00000E+00 2.50000E-01
 -1       107 0.00000E+00 2.50000E-01 5.00000E-01
 -1       108 0.00000E+00 5.00000E-01 2.50000E-01
 -1       109 1.00000E+01-5.00000E-01-5.00000E-01
 -1       110 1.00000E+01-5.00000E-01 0.00000E+00
 -1       111 8.00000E+00-5.00000E-01-5.00000E-01
 -1       112 8.00000E+00-5.00000E-01 0.00000E+00
 -1       113 1.00000E+01-2.50000E-01-5.00000E-01
 -1       114 1.00000E+01-5.00000E-01-2.50000E-01
 -1       115 1.00000E+01-2.50000E-01 0.00000E+00
 -1       116 9.00000E+00-5.00000E-01-5.00000E-01
 -1       117 9.00000E+00-5.00000E-01 0.00000E+00
 -1       118 8.00000E+00-2.50000E-01-5.00000E-01
 -1       119 8.00000E+00-5.00000E-01-2.50000E-01
 -1       120 8.00000E+00-2.50000E-01 0.00000E+00
 -1       121 1.00000E+01-5.00000E-01 5.00000E-01
 -1       122 8.00000E+00-5.00000E-01 5.00000E-01
 -1       123 1.00000E+01-5.00000E-01 2.50000E-01
 -1       124 1.00000E+01-2.50000E-01 5.00000E-01
 -1       125 9.00000E+00-5.00000E-01 5.00000E-01
 -1       126 8.00000E+00-5.00000E-01 2.50000E-01
 -1       127 8.00000E+00-2.50000E-01 5.00000E-01
 -1       128 6.00000E+00-5.00000E-01-5.00000E-01
 -1       129 6.00000E+00-5.00000E-01 0.00000E+00
 -1       130 7.00000E+00-5.00000E-01-5.00000E-01
 -1       131 7.00000E+00-5.00000E-01 0.00000E+00
 -1       132 6.00000E+00-2.50000E-01-5.00000E-01
 -1       133 6.00000E+00-5.00000E-01-2.50000E-01
 -1       134 6.00000E+00-2.50000E-01 0.00000E+00
 -1       135 6.00000E+00-5.00000E-01 5.00000E-01
 -1       136 7.00000E+00-5.00000E-01 5.00000E-01
 -1       137 6.00000E+00-5.00000E-01 2.50000E-01
 -1       138 6.00000E+00-2.50000E-01 5.00000E-01
 -1       139 4.00000E+00-5.00000E-01-5.00000E-01
 -1       140 4.00000E+00-5.00000E-01 0.00000E+00
 -1       141 5.00000E+00-5.00000E-01-5.00000E-01
 -1       142 5.00000E+00-5.00000E-01 0.00000E+00
 -1       143 4.00000E+00-2.50000E-01-5.00000E-01
 -1       144 4.00000E+00-5.00000E-01-2.50000E-01
 -1       145 4.00000E+00-2.50000E-01 0.00000E+00
 -1       146 4.00000E+00-5.00000E-01 5.00000E-01
 -1       147 5.00000E+00-5.00000E-01 5.00000E-01
 -1       148 4.00000E+00-5.00000E-01 2.50000E-01
 -1       149 4.00000E+00-2.50000E-01 5.00000E-01
 -1       150 2.00000E+00-5.00000E-01-5.00000E-01
 -1       151 2.00000E+00-5.00000E-01-1.38778E-17
 -1       152 3.00000E+00-5.00000E-01-5.00000E-01
 -1       153 3.00000E+00-5.00000E-01 1.38778E-17
 -1       154 2.00000E+00-2.50000E-01-5.00000E-01
 -1       155 2.00000E+00-5.00000E-01-2.50000E-01
 -1       156 2.00000E+00-2.50000E-01 0.00000E+00
 -1       157 2.00000E+00-5.00000E-01 5.00000E-01
 -1       158 3.00000E+00-5.00000E-01 5.00000E-01
 -1       159 2.00000E+00-5.00000E-01 2.50000E-01
 -1       160 2.00000E+00-2.50000E-01 5.00000E-01
 -1       161 0.00000E+00-5.00000E-01-5.00000E-01
 -1       162 0.00000E+00-5.00000E-01 0.00000E+00
 -1       163 1.00000E+00-5.00000E-01-5.00000E-01
 -1       164 1.00000E+00-5.00000E-01-6.93889E-18
 -1       165 0.00000E+00-2.50000E-01-5.00000E-01
 -1       166 0.00000E+00-5.00000E-01-2.50000E-01
 -1       167 0.00000E+00-2.50000E-01 0.00000E+00
 -1       168 0.00000E+00-5.00000E-01 5.00000E-01
 -1       169 1.00000E+00-5.00000E-01 5.00000E-01
 -1       170 0.00000E+00-5.00000E-01 2.50000E-01
 -1       171 0.00000E+00-2.50000E-01 5.00000E-01
 -3
    3C                            20                                     1
 -1         1    4    0MATER
 -2         1         2         3         4         5         6         7         8         9        10
 -2        11        12        13        14        15        16        17        18        19        20
 -1         2    4    0MATER
 -2         4         3        21        22         8         7        23        24        11        25
 -2        26        27        16        15        28        29        19        30        31        32
 -1         3    4    0MATER
 -2         5         6         7         8        33        34        35        36        17        18
 -2        19        20        37        38        39        40        41        42        43        44
 -1         4    4    0MATER
 -2         8         7        23        24        36        35        45        46        19        30
 -2        31        32        40        39        47        48        43        49        50        51
 -1         5    4    0MATER
 -2        33        34        35        36        52        53        54        55        41        42
 -2        43        44        56        57        58        59        60        61        62        63
 -1         6    4    0MATER
 -2        36        35        45        46        55        54        64        65        43        49
 -2        50        51        59        58        66        67        62        68        69        70
 -1         7    4    0MATER
 -2        52        53        54        55        71        72        73        74        60        61
 -2        62        63        75        76        77        78        79        80        81        82
 -1         8    4    0MATER
 -2        55        54        64        65        74        73        83        84        62        68
 -2        69        70        78        77        85        86        81        87        88        89
 -1         9    4    0MATER
 -2        71        72        73        74        90        91        92        93        79        80
 -2        81        82        94        95        96        97        98        99       100       101
 -1        10    4    0MATER
 -2        74        73        83        84        93        92       102       103        81        87
 -2        88        89        97        96       104       105       100       106       107       108
 -1        11    4    0MATER
 -2         2       109       110         3         6       111       112         7       113       114
 -2       115        10        14       116       117        15       118       119       120        18
 -1        12    4    0MATER
 -2         3       110       121        21         7       112       122        23       115       123
 -2       124        25        15       117       125        28       120       126       127        30
 -1        13    4    0MATER
 -2         6       111       112         7        34       128       129        35       118       119
 -2       120        18        38       130       131        39       132       133       134        42
 -1        14    4    0MATER
 -2         7       112       122        23        35       129       135        45       120       126
 -2       127        30        39       131       136        47       134       137       138        49
 -1        15    4    0MATER
 -2        34       128       129        35        53       139       140        54       132       133
 -2       134        42        57       141       142        58       143       144       145        61
 -1        16    4    0MATER
 -2        35       129       135        45        54       140       146        64       134       137
 -2       138        49        58       142       147        66       145       148       149        68
 -1        17    4    0MATER
 -2        53       139       140        54        72       150       151        73       143       144
 -2       145        61        76       152       153        77       154       155       156        80
 -1        18    4    0MATER
 -2        54       140       146        64        73       151       157        83       145       148
 -2       149        68        77       153       158        85       156       159       160        87
 -1        19    4    0MATER
 -2        72       150       151        73        91       161       162        92       154       155
 -2       156        80        95       163       164        96       165       166       167        99
 -1        20    4    0MATER
 -2        73       151       157        83        92       162       168       102       156       159
 -2       160        87        96       164       169       104       167       170       171       106
 -3
    1PSTEP                         1           1           1          
    1PGM                1.000000E+00                                  
    1PGK                2.698106E+03                                  
    1PHID                         -1                                  
    1PSUBC                         0                                  
    1PMODE                         1                                  
  100CL  101 8.26703E+00         171                     2    1MODAL      1
 -4  DISP        4    1
 -5  D1          1    2    1    0
 -5  D2          1    2    2    0
 -5  D3          1    2    3    0
 -5  ALL         1    2    0    0    1ALL
 -1         1 6.98750E-04-5.03090E-03 5.09809E-03
 -1         2 3.51706E-04-5.03083E-03 5.09808E-03
 -1         3 7.89706E-17-5.03086E-03 5.09805E-03
 -1         4 3.47071E-04-5.03089E-03 5.09802E-03
 -1         5 6.90617E-04-3.64581E-03 3.69448E-03
 -1         6 3.47695E-04-3.64443E-03 3.69403E-03
 -1         7 7.42814E-17-3.64489E-03 3.69357E-03
 -1         8 3.43112E-04-3.64535E-03 3.69311E-03
 -1         9 5.25220E-04-5.03087E-03 5.09808E-03
 -1        10 1.75845E-04-5.03083E-03 5.09807E-03
 -1        11 1.73528E-04-5.03088E-03 5.09802E-03
 -1        12 5.22902E-04-5.03089E-03 5.09806E-03
 -1        13 6.97064E-04-4.33676E-03 4.39468E-03
 -1        14 3.50892E-04-4.33633E-03 4.39455E-03
 -1        15 7.43661E-17-4.33648E-03 4.39440E-03
 -1        16 3.46268E-04-4.33663E-03 4.39425E-03
 -1        17 5.18982E-04-3.64503E-03 3.69435E-03
 -1        18 1.73663E-04-3.64475E-03 3.69371E-03
 -1        19 1.71374E-04-3.64503E-03 3.69343E-03
 -1        20 5.16687E-04-3.64567E-03 3.69370E-03
 -1        21-3.51706E-04-5.03083E-03 5.09808E-03
 -1        22-4.63521E-06-5.03083E-03 5.09803E-03
 -1        23-3.47695E-04-3.64443E-03 3.69403E-03
 -1        24-4.58126E-06-3.64398E-03 3.69267E-03
 -1        25-1.75845E-04-5.03083E-03 5.09807E-03
 -1        26-1.78183E-04-5.03084E-03 5.09804E-03
 -1        27 1.71230E-04-5.03085E-03 5.09803E-03
 -1        28-3.50892E-04-4.33633E-03 4.39455E-03
 -1        29-4.62402E-06-4.33622E-03 4.39414E-03
 -1        30-1.73663E-04-3.64475E-03 3.69371E-03
 -1        31-1.76407E-04-3.64412E-03 3.69344E-03
 -1        32 1.69537E-04-3.64475E-03 3.69280E-03
 -1        33 6.39169E-04-2.31199E-03 2.34279E-03
 -1        34 3.21876E-04-2.30724E-03 2.34124E-03
 -1        35 5.98607E-17-2.30881E-03 2.33965E-03
 -1        36 3.17634E-04-2.31039E-03 2.33806E-03
 -1        37 6.71082E-04-2.96643E-03 3.00600E-03
 -1        38 3.37895E-04-2.96355E-03 3.00507E-03
 -1        39 6.95338E-17-2.96451E-03 3.00410E-03
 -1        40 3.33442E-04-2.96546E-03 3.00313E-03
 -1        41 4.80237E-04-2.30920E-03 2.34244E-03
 -1        42 1.60631E-04-2.30844E-03 2.34002E-03
 -1        43 1.58514E-04-2.30918E-03 2.33927E-03
 -1        44 4.78110E-04-2.31161E-03 2.34000E-03
 -1        45-3.21876E-04-2.30724E-03 2.34124E-03
 -1        46-4.23997E-06-2.30562E-03 2.33650E-03
 -1        47-3.37895E-04-2.96355E-03 3.00507E-03
 -1        48-4.45167E-06-2.96261E-03 3.00223E-03
 -1        49-1.60631E-04-2.30844E-03 2.34002E-03
 -1        50-1.63508E-04-2.30602E-03 2.33929E-03
 -1        51 1.57150E-04-2.30842E-03 2.33686E-03
 -1        52 5.14705E-04-1.14798E-03 1.16314E-03
 -1        53 2.59380E-04-1.13872E-03 1.16012E-03
 -1        54 4.28745E-17-1.14180E-03 1.15705E-03
 -1        55 2.55961E-04-1.14483E-03 1.15393E-03
 -1        56 5.85378E-04-1.69936E-03 1.72193E-03
 -1        57 2.94797E-04-1.69232E-03 1.71963E-03
 -1        58 5.15462E-17-1.69465E-03 1.71728E-03
 -1        59 2.90911E-04-1.69697E-03 1.71492E-03
 -1        60 3.86689E-04-1.14269E-03 1.16231E-03
 -1        61 1.29323E-04-1.14093E-03 1.15792E-03
 -1        62 1.27619E-04-1.14266E-03 1.15617E-03
 -1        63 3.84973E-04-1.14707E-03 1.15786E-03
 -1        64-2.59380E-04-1.13872E-03 1.16012E-03
 -1        65-3.41434E-06-1.13540E-03 1.15073E-03
 -1        66-2.94797E-04-1.69232E-03 1.71963E-03
 -1        67-3.88315E-06-1.68997E-03 1.71266E-03
 -1        68-1.29323E-04-1.14093E-03 1.15792E-03
 -1        69-1.31941E-04-1.13640E-03 1.15609E-03
 -1        70 1.26822E-04-1.14077E-03 1.15166E-03
 -1        71 2.98423E-04-3.18298E-04 3.22318E-04
 -1        72 1.51196E-04-3.05565E-04 3.18266E-04
 -1        73 2.26865E-17-3.09938E-04 3.14077E-04
 -1        74 1.49203E-04-3.14071E-04 3.09647E-04
 -1        75 4.16523E-04-6.80576E-04 6.89449E-04
 -1        76 2.09718E-04-6.68209E-04 6.85437E-04
 -1        77 3.32105E-17-6.72249E-04 6.81228E-04
 -1        78 2.06954E-04-6.76403E-04 6.77133E-04
 -1        79 2.24313E-04-3.10254E-04 3.21969E-04
 -1        80 7.50638E-05-3.09404E-04 3.14464E-04
 -1        81 7.40745E-05-3.10319E-04 3.13536E-04
 -1        82 2.23308E-04-3.17839E-04 3.14282E-04
 -1        83-1.51196E-04-3.05565E-04 3.18266E-04
 -1        84-1.97961E-06-3.00901E-04 3.05150E-04
 -1        85-2.09718E-04-6.68209E-04 6.85437E-04
 -1        86-2.76304E-06-6.64233E-04 6.73321E-04
 -1        87-7.50638E-05-3.09404E-04 3.14464E-04
 -1        88-7.72235E-05-3.01573E-04 3.13381E-04
 -1        89 7.42542E-05-3.09137E-04 3.05716E-04
 -1        90 0.00000E+00 0.00000E+00 0.00000E+00
 -1        91 0.00000E+00 0.00000E+00 0.00000E+00
 -1        92 0.00000E+00 0.00000E+00 0.00000E+00
 -1        93 0.00000E+00 0.00000E+00 0.00000E+00
 -1        94 1.51647E-04-9.33920E-05 9.43026E-05
 -1        95 7.55568E-05-7.43354E-05 8.79093E-05
 -1        96 1.05052E-17-8.03349E-05 8.14078E-05
 -1        97 7.45610E-05-8.67507E-05 7.53282E-05
 -1        98 0.00000E+00 0.00000E+00 0.00000E+00
 -1        99 0.00000E+00 0.00000E+00 0.00000E+00
 -1       100 0.00000E+00 0.00000E+00 0.00000E+00
 -1       101 0.00000E+00 0.00000E+00 0.00000E+00
 -1       102 0.00000E+00 0.00000E+00 0.00000E+00
 -1       103 0.00000E+00 0.00000E+00 0.00000E+00
 -1       104-7.55568E-05-7.43354E-05 8.79093E-05
 -1       105-1.00596E-06-6.80115E-05 6.92565E-05
 -1       106 0.00000E+00 0.00000E+00 0.00000E+00
 -1       107 0.00000E+00 0.00000E+00 0.00000E+00
 -1       108 0.00000E+00 0.00000E+00 0.00000E+00
 -1       109 4.63521E-06-5.03083E-03 5.09803E-03
 -1       110-3.47071E-04-5.03089E-03 5.09802E-03
 -1       111 4.58126E-06-3.64398E-03 3.69267E-03
 -1       112-3.43112E-04-3.64535E-03 3.69311E-03
 -1       113 1.78183E-04-5.03084E-03 5.09804E-03
 -1       114-1.71230E-04-5.03085E-03 5.09803E-03
 -1       115-1.73528E-04-5.03088E-03 5.09802E-03
 -1       116 4.62402E-06-4.33622E-03 4.39414E-03
 -1       117-3.46268E-04-4.33663E-03 4.39425E-03
 -1       118 1.76407E-04-3.64412E-03 3.69344E-03
 -1       119-1.69537E-04-3.64475E-03 3.69280E-03
 -1       120-1.71374E-04-3.64503E-03 3.69343E-03
 -1       121-6.98750E-04-5.03090E-03 5.09809E-03
 -1       122-6.90617E-04-3.64581E-03 3.69448E-03
 -1       123-5.22902E-04-5.03089E-03 5.09806E-03
 -1       124-5.25220E-04-5.03087E-03 5.09808E-03
 -1       125-6.97064E-04-4.33676E-03 4.39468E-03
 -1       126-5.16687E-04-3.64567E-03 3.69370E-03
 -1       127-5.18982E-04-3.64503E-03 3.69435E-03
 -1       128 4.23997E-06-2.30562E-03 2.33650E-03
 -1       129-3.17634E-04-2.31039E-03 2.33806E-03
 -1       130 4.45167E-06-2.96261E-03 3.00223E-03
 -1       131-3.33442E-04-2.96546E-03 3.00313E-03
 -1       132 1.63508E-04-2.30602E-03 2.33929E-03
 -1       133-1.57150E-04-2.30842E-03 2.33686E-03
 -1       134-1.58514E-04-2.30918E-03 2.33927E-03
 -1       135-6.39169E-04-2.31199E-03 2.34279E-03
 -1       136-6.71082E-04-2.96643E-03 3.00600E-03
 -1       137-4.78110E-04-2.31161E-03 2.34000E-03
 -1       138-4.80237E-04-2.30920E-03 2.34244E-03
 -1       139 3.41434E-06-1.13540E-03 1.15073E-03
 -1       140-2.55961E-04-1.14483E-03 1.15393E-03
 -1       141 3.88315E-06-1.68997E-03 1.71266E-03
 -1       142-2.90911E-04-1.69697E-03 1.71492E-03
 -1       143 1.31941E-04-1.13640E-03 1.15609E-03
 -1       144-1.26822E-04-1.14077E-03 1.15166E-03
 -1       145-1.27619E-04-1.14266E-03 1.15617E-03
 -1       146-5.14705E-04-1.14798E-03 1.16314E-03
 -1       147-5.85378E-04-1.69936E-03 1.72193E-03
 -1       148-3.84973E-04-1.14707E-03 1.15786E-03
 -1       149-3.86689E-04-1.14269E-03 1.16231E-03
 -1       150 1.97961E-06-3.00901E-04 3.05150E-04
 -1       151-1.49203E-04-3.14071E-04 3.09647E-04
 -1       152 2.76304E-06-6.64233E-04 6.73321E-04
 -1       153-2.06954E-04-6.76403E-04 6.77133E-04
 -1       154 7.72235E-05-3.01573E-04 3.13381E-04
 -1       155-7.42542E-05-3.09137E-04 3.05716E-04
 -1       156-7.40745E-05-3.10319E-04 3.13536E-04
 -1       157-2.98423E-04-3.18298E-04 3.22318E-04
 -1       158-4.16523E-04-6.80576E-04 6.89449E-04
 -1       159-2.23308E-04-3.17839E-04 3.14282E-04
 -1       160-2.24313E-04-3.10254E-04 3.21969E-04
 -1       161 0.00000E+00 0.00000E+00 0.00000E+00
 -1       162 0.00000E+00 0.00000E+00 0.00000E+00
 -1       163 1.00596E-06-6.80115E-05 6.92565E-05
 -1       164-7.45610E-05-8.67507E-05 7.53282E-05
 -1       165 0.00000E+00 0.00000E+00 0.00000E+00
 -1       166 0.00000E+00 0.00000E+00 0.00000E+00
 -1       167 0.00000E+00 0.00000E+00 0.00000E+00
 -1       168 0.00000E+00 0.00000E+00 0.00000E+00
 -1       169-1.51647E-04-9.33920E-05 9.43026E-05
 -1       170 0.00000E+00 0.00000E+00 0.00000E+00
 -1       171 0.00000E+00 0.00000E+00 0.00000E+00
 -3
    1PSTEP                         2           1           1          
    1PGM                1.000000E+00                                  
    1PGK                2.698106E+03                                  
    1PHID                         -1                                  
    1PSUBC                         0                                  
    1PMODE                         1                                  
  100CL  101 8.26703E+00         171                     2    1MODAL      1
 -4  STRESS      6    1
 -5  SXX         1    4    1    1
 -5  SYY         1    4    2    2
 -5  SZZ         1    4    3    3
 -5  SXY         1    4    1    2
 -5  SYZ         1    4    2    3
 -5  SZX         1    4    3    1
 -1         1-1.99978E+05-1.01939E+05-1.01822E+05-1.21151E+05 1.25053E+04 1.22750E+05
 -1         2-1.07230E+05-6.05562E+04-4.45219E+04-1.34699E+05 7.20283E+03 1.20520E+05
 -1         3-2.22725E-06-4.61882E-06-7.44297E-06-1.30096E+05 3.27171E-06 1.31833E+05
 -1         4-1.05817E+05-4.39351E+04-5.97581E+04-1.18931E+05 7.29903E+03 1.36498E+05
 -1         5 2.18820E+06-4.84718E+04-4.81327E+04-2.58981E+05 2.49274E+04 2.63017E+05
 -1         6 1.09270E+06-4.10017E+04-9.60634E+03-5.86310E+05 1.39737E+04 2.61690E+05
 -1         7 1.56429E-06 2.75016E-06 2.43365E-06-5.14994E+05-2.83131E-07 5.21872E+05
 -1         8 1.07830E+06-9.47973E+03-4.04613E+04-2.58242E+05 1.41603E+04 5.94141E+05
 -1         9-1.40651E+05-9.36336E+04-7.31778E+04-1.32134E+05 5.02565E+03 1.17785E+05
 -1        10-3.95625E+04-3.09436E+04-3.36814E+04-1.28277E+05-7.74105E+02 1.30009E+05
 -1        11-3.90411E+04-3.32375E+04-3.05358E+04-1.28296E+05-7.84444E+02 1.29990E+05
 -1        12-1.39629E+05-7.29189E+04-9.32917E+04-1.16251E+05 5.13278E+03 1.33878E+05
 -1        13 8.25596E+05 2.06590E+04 2.04466E+04 4.02800E+04-1.12274E+04-4.05233E+04
 -1        14 4.07021E+05 1.41326E+04 5.48147E+03-1.29481E+05-4.80191E+03-4.09065E+04
 -1        15-6.83725E-07-2.60504E-06-1.23117E-06-9.27882E+04 5.78922E-07 9.40274E+04
 -1        16 4.01657E+05 5.40922E+03 1.39464E+04 4.03674E+04-4.86604E+03 1.31210E+05
 -1        17 1.64661E+06-6.61040E+04-3.37082E+04-4.23655E+05 1.16467E+04 2.52911E+05
 -1        18 5.53069E+05-2.65302E+04-2.64854E+04-5.35343E+05-6.28447E+01 4.00129E+05
 -1        19 5.45780E+05-2.61363E+04-2.61806E+04-3.94855E+05-6.36840E+01 5.42493E+05
 -1        20 1.63961E+06-3.38632E+04-6.59079E+04-2.49455E+05 1.18362E+04 4.29793E+05
 -1        21 1.07230E+05 6.05562E+04 4.45219E+04-1.34699E+05-7.20283E+03 1.20520E+05
 -1        22 1.32657E+03 9.47986E+03-8.12819E+03-1.19743E+05 8.29548E+01 1.21361E+05
 -1        23-1.09270E+06 4.10017E+04 9.60634E+03-5.86310E+05-1.39737E+04 2.61690E+05
 -1        24-1.45156E+04 2.58845E+04-2.52437E+04-3.02507E+05 1.65358E+02 3.05969E+05
 -1        25 3.95625E+04 3.09436E+04 3.36814E+04-1.28277E+05 7.74105E+02 1.30009E+05
 -1        26 7.79021E+04 2.63884E+04 1.99991E+04-1.30616E+05-8.04054E+03 1.16439E+05
 -1        27-7.60428E+04-1.90299E+04-2.51484E+04-1.14886E+05 8.10793E+03 1.32380E+05
 -1        28-4.07021E+05-1.41326E+04-5.48147E+03-1.29481E+05 4.80191E+03-4.09065E+04
 -1        29-5.47665E+03-1.61472E+04 1.58745E+04 1.80706E+04-7.44777E+01-1.86066E+04
 -1        30-5.53069E+05 2.65302E+04 2.64854E+04-5.35343E+05 6.28447E+01 4.00129E+05
 -1        31-5.38313E+05 1.52187E+04-1.14602E+04-4.59817E+05-1.42055E+04 2.62180E+05
 -1        32 5.16514E+05 1.19084E+04-1.43430E+04-2.58847E+05 1.43613E+04 4.65479E+05
 -1        33 8.27415E+06-1.18022E+05-1.18367E+05-4.42094E+05-3.09828E+04 4.48898E+05
 -1        34 4.16663E+06-4.73491E+04-7.70146E+04-9.85969E+05-1.27415E+04 4.41830E+05
 -1        35 8.87376E-07-1.29215E-06-2.50881E-06-8.64911E+05 2.19417E-07 8.76463E+05
 -1        36 4.11172E+06-7.59995E+04-4.67250E+04-4.36007E+05-1.29117E+04 9.99138E+05
 -1        37 5.13174E+06-2.19176E+04-2.22924E+04 1.00400E+05-2.22544E+04-1.01002E+05
 -1        38 2.57510E+06 4.10486E+02-2.31512E+04-3.32420E+05-1.08106E+04-1.04916E+05
 -1        39 8.58519E-07-5.80671E-07-1.36426E-06-2.38286E+05-2.13634E-07 2.41468E+05
 -1        40 2.54117E+06-2.28461E+04 4.05076E+02 1.03533E+05-1.09550E+04 3.36860E+05
 -1        41 6.24424E+06-5.07910E+04-8.11057E+04-7.13149E+05-1.57529E+04 4.31469E+05
 -1        42 2.10589E+06-8.74006E+03-9.03764E+03-9.01978E+05 8.69600E+02 6.70304E+05
 -1        43 2.07814E+06-8.91853E+03-8.62486E+03-6.61470E+05 8.81214E+02 9.14025E+05
 -1        44 6.21717E+06-8.01889E+04-5.01977E+04-4.25601E+05-1.59172E+04 7.23441E+05
 -1        45-4.16663E+06 4.73491E+04 7.70146E+04-9.85969E+05 1.27415E+04 4.41830E+05
 -1        46-5.48872E+04-2.51957E+04 2.67638E+04-5.09898E+05-2.05527E+02 5.15809E+05
 -1        47-2.57510E+06-4.10486E+02 2.31512E+04-3.32420E+05 1.08106E+04-1.04916E+05
 -1        48-3.40418E+04-2.81062E+04 2.83995E+04 4.46621E+04-1.47626E+02-4.59981E+04
 -1        49-2.10589E+06 8.74006E+03 9.03764E+03-9.01978E+05-8.69600E+02 6.70304E+05
 -1        50-2.08155E+06 4.50494E+04 6.96405E+04-7.70943E+05 1.22771E+04 4.45108E+05
 -1        51 1.99889E+06-6.85705E+04-4.43795E+04-4.39423E+05-1.24872E+04 7.80473E+05
 -1        52 1.70324E+07 4.97012E+05 4.99460E+05-5.29186E+05 1.22962E+05 5.37675E+05
 -1        53 8.64456E+06 1.86098E+05 3.57576E+05-1.22993E+06 7.22480E+04 5.20017E+05
 -1        54 1.88241E-06 4.78147E-07-2.44414E-07-1.05023E+06 6.52220E-07 1.06425E+06
 -1        55 8.53063E+06 3.52863E+05 1.83645E+05-5.13163E+05 7.32129E+04 1.24636E+06
 -1        56 1.25123E+07 1.09210E+05 1.09780E+05 1.31682E+05 4.88655E+04-1.32396E+05
 -1        57 6.28496E+06 3.30060E+04 8.41396E+04-4.63855E+05 2.29060E+04-1.32767E+05
 -1        58 9.97883E-07-1.19938E-06-1.13571E-06-3.34029E+05 7.31416E-08 3.38490E+05
 -1        59 6.20213E+06 8.30306E+04 3.25710E+04 1.31017E+05 2.32119E+04 4.70050E+05
 -1        60 1.28165E+07 2.62064E+05 3.97463E+05-8.99179E+05 5.94534E+04 5.03440E+05
 -1        61 4.29137E+06 5.22742E+04 7.77937E+04-1.10189E+06 4.06301E+03 8.16907E+05
 -1        62 4.23481E+06 7.67684E+04 5.15852E+04-8.06140E+05 4.11728E+03 1.11661E+06
 -1        63 1.27592E+07 3.93434E+05 2.60980E+05-4.96458E+05 6.04208E+04 9.12019E+05
 -1        64-8.64456E+06-1.86098E+05-3.57576E+05-1.22993E+06-7.22480E+04 5.20017E+05
 -1        65-1.12986E+05 1.81254E+05-1.87864E+05-6.36279E+05 8.15681E+02 6.43356E+05
 -1        66-6.28496E+06-3.30060E+04-8.41396E+04-4.63855E+05-2.29060E+04-1.32767E+05
 -1        67-8.30016E+04 4.22593E+04-4.37120E+04 5.29409E+04 3.24153E+02-5.46927E+04
 -1        68-4.29137E+06-5.22742E+04-7.77937E+04-1.10189E+06-4.06301E+03 8.16907E+05
 -1        69-4.40393E+06-8.34106E+04-3.06317E+05-9.61761E+05-7.25181E+04 5.29616E+05
 -1        70 4.23428E+06 3.01071E+05 7.99410E+04-5.22983E+05 7.33133E+04 9.73776E+05