/*--------------------------------*- C++ -*----------------------------------*\
| =========                 |                                                 |
| \\      /  F ield         | OpenFOAM: The Open Source CFD Toolbox           |
|  \\    /   O peration     | Version:  2.1.1                                 |
|   \\  /    A nd           | Web:      www.OpenFOAM.org                      |
|    \\/     M anipulation  |                                                 |
\*---------------------------------------------------------------------------*/
FoamFile
{
    version     2.0;
    format      ascii;
    class       volScalarField;
    location    "0";
    object      y;
}
// * * * * * * * * * * * * * * * * * * * * * * * * * * * * * * * * * * * * * //

dimensions      [0 1 0 0 0 0 0];

internalField   nonuniform List<scalar> 
266800
(
0.482286
0.482286
0.482286
0.482286
0.482286
0.482286
0.482286
0.482286
0.482286
0.482286
0.482286
0.482286
0.482286
0.482286
0.482286
0.482286
0.482286
0.482286
0.482286
0.482286
0.482286
0.482286
0.482286
0.482286
0.482286
0.482286
0.482286
0.482286
0.482286
0.482286
0.482286
0.482286
0.482286
0.482286
0.482286
0.482286
0.482286
0.482286
0.482286
0.482286
0.482286
0.482286
0.482286
0.482286
0.482286
0.482286
0.482286
0.482286
0.482286
0.482286
0.482286
0.482286
0.482286
0.482286
0.482286
0.482286
0.482286
0.482286
0.482286
0.482286
0.482286
0.482286
0.482286
0.482286
0.482286
0.482286
0.482286
0.482286
0.482286
0.482286
0.482286
0.482286
0.482286
0.482286
0.482286
0.482286
0.482286
0.482286
0.482286
0.482286
0.482286
0.482286
0.482286
0.482286
0.482286
0.482286
0.482286
0.482286
0.482286
0.482286
0.482286
0.482286
0.482286
0.482286
0.482286
0.482286
0.482286
0.482286
0.482286
0.482286
0.482286
0.482286
0.482286
0.482286
0.482286
0.482286
0.482286
0.482286
0.482286
0.482286
0.482286
0.482286
0.482286
0.482286
0.482286
0.482286
0.482286
0.482286
0.482286
0.482286
0.482286
0.482286
0.482286
0.482286
0.482286
0.482286
0.482286
0.482286
0.482286
0.482286
0.482286
0.482286
0.482286
0.482286
0.482286
0.482286
0.482286
0.482286
0.482286
0.482286
0.482286
0.482286
0.482286
0.482286
0.482286
0.482286
0.482286
0.482286
0.482286
0.482286
0.482286
0.482286
0.482286
0.482286
0.482286
0.482286
0.482286
0.482286
0.482286
0.482286
0.482286
0.482286
0.482286
0.482286
0.482286
0.482286
0.482286
0.482286
0.482286
0.482286
0.482286
0.482286
0.482286
0.482286
0.482286
0.482286
0.482286
0.482286
0.482286
0.482286
0.482286
0.482286
0.482286
0.482286
0.482286
0.482286
0.482286
0.482286
0.482286
0.482286
0.482286
0.482286
0.482286
0.482286
0.482286
0.482286
0.482286
0.482286
0.482286
0.482286
0.482286
0.482286
0.482286
0.482286
0.482286
0.482286
0.482286
0.482286
0.482286
0.482286
0.482286
0.482286
0.482286
0.482286
0.482286
0.482286
0.482286
0.482286
0.482286
0.482286
0.482286
0.482286
0.482286
0.482286
0.482286
0.482286
0.482286
0.482286
0.482286
0.482286
0.482286
0.482286
0.482286
0.482286
0.482286
0.482286
0.482286
0.482286
0.482286
0.482286
0.482286
0.482286
0.475676
0.468946
0.462273
0.455658
0.449098
0.442595
0.436148
0.429755
0.423418
0.417134
0.410904
0.404727
0.398604
0.392532
0.386512
0.380544
0.374627
0.36876
0.362944
0.357177
0.35146
0.345791
0.340171
0.334599
0.329075
0.323598
0.318167
0.312783
0.307445
0.302153
0.296906
0.291704
0.286546
0.281432
0.276362
0.271336
0.266352
0.261411
0.256512
0.251656
0.24684
0.242066
0.237333
0.23264
0.227987
0.223374
0.2188
0.214266
0.20977
0.205313
0.200894
0.196512
0.192168
0.187862
0.183592
0.179358
0.175161
0.171
0.166874
0.162783
0.158728
0.154707
0.150721
0.146768
0.14285
0.138965
0.135113
0.131295
0.127509
0.123755
0.120033
0.116344
0.112686
0.109059
0.105463
0.101898
0.0983638
0.0948598
0.0913858
0.0879415
0.0845269
0.0811415
0.0777852
0.0744578
0.0711589
0.0678885
0.0646462
0.0614319
0.0582453
0.0550863
0.0516842
0.0485829
0.045509
0.0424626
0.0394436
0.036452
0.0334882
0.0305523
0.027645
0.0247672
0.0219202
0.0191066
0.0163304
0.0135991
0.0109277
0.00835236
0.00580914
0.00138489
0.481643
0.481643
0.481643
0.481643
0.481643
0.481643
0.481643
0.481643
0.481643
0.481643
0.481643
0.481643
0.481643
0.481643
0.481643
0.481643
0.481643
0.481643
0.481643
0.481643
0.481643
0.481643
0.481643
0.481643
0.481643
0.481643
0.481643
0.481643
0.481643
0.481643
0.481643
0.481643
0.481643
0.481643
0.481643
0.481643
0.481643
0.481643
0.481643
0.481643
0.481643
0.481643
0.481643
0.481643
0.481643
0.481643
0.481643
0.481643
0.481643
0.481643
0.481643
0.481643
0.481643
0.481643
0.481643
0.481643
0.481643
0.481643
0.481643
0.481643
0.481643
0.481643
0.481643
0.481643
0.481643
0.481643
0.481643
0.481643
0.481643
0.481643
0.481643
0.481643
0.481643
0.481643
0.481643
0.481643
0.481643
0.481643
0.481643
0.481643
0.481643
0.481643
0.481643
0.481643
0.481643
0.481643
0.481643
0.481643
0.481643
0.481643
0.481643
0.481643
0.481643
0.481643
0.481643
0.481643
0.481643
0.481643
0.481643
0.481643
0.481643
0.481643
0.481643
0.481643
0.481643
0.481643
0.481643
0.481643
0.481643
0.481643
0.481643
0.481643
0.481643
0.481643
0.481643
0.481643
0.481643
0.481643
0.481643
0.481643
0.481643
0.481643
0.481643
0.481643
0.481643
0.481643
0.481643
0.481643
0.481643
0.481643
0.481643
0.481643
0.481643
0.481643
0.481643
0.481643
0.481643
0.481643
0.481643
0.481643
0.481643
0.481643
0.481643
0.481643
0.481643
0.481643
0.481643
0.481643
0.481643
0.481643
0.481643
0.481643
0.481643
0.481643
0.481643
0.481643
0.481643
0.481643
0.481643
0.481643
0.481643
0.481643
0.481643
0.481643
0.481643
0.481643
0.481643
0.481643
0.481643
0.481643
0.481643
0.481643
0.481643
0.481643
0.481643
0.481643
0.481643
0.481643
0.481643
0.481643
0.481643
0.481643
0.481643
0.481643
0.481643
0.481643
0.481643
0.481643
0.481643
0.481643
0.481643
0.481643
0.481643
0.481643
0.481643
0.481643
0.481643
0.481643
0.481643
0.481643
0.481643
0.481643
0.481643
0.481643
0.481643
0.481643
0.481643
0.481643
0.481643
0.481643
0.481643
0.481643
0.481643
0.481643
0.481643
0.481643
0.481643
0.481643
0.481643
0.481643
0.481643
0.481643
0.481643
0.481643
0.481643
0.481643
0.481643
0.481643
0.481643
0.481643
0.481643
0.481643
0.481643
0.481643
0.481643
0.481643
0.481643
0.481643
0.481643
0.481643
0.481643
0.481643
0.475673
0.468943
0.46227
0.455654
0.449095
0.442592
0.436144
0.429752
0.423414
0.41713
0.410901
0.404724
0.3986
0.392528
0.386509
0.38054
0.374623
0.368757
0.36294
0.357173
0.351456
0.345787
0.340167
0.334595
0.329071
0.323593
0.318163
0.312779
0.307441
0.302148
0.296901
0.291699
0.286541
0.281427
0.276357
0.271331
0.266347
0.261406
0.256507
0.25165
0.246834
0.24206
0.237327
0.232634
0.227981
0.223367
0.218794
0.214259
0.209763
0.205306
0.200886
0.196505
0.192161
0.187854
0.183584
0.17935
0.175153
0.170991
0.166865
0.162775
0.158719
0.154698
0.150711
0.146759
0.14284
0.138955
0.135103
0.131284
0.127497
0.123743
0.120021
0.116331
0.112673
0.109046
0.10545
0.101884
0.0983493
0.0948447
0.0913701
0.0879253
0.08451
0.0811239
0.0777668
0.0744386
0.0711388
0.0678674
0.0646241
0.0614086
0.0582208
0.0550604
0.0519272
0.048821
0.0457417
0.0426891
0.039663
0.0366633
0.0336899
0.0307427
0.0278218
0.0249273
0.0220594
0.0192189
0.0164069
0.0136255
0.0108794
0.00817947
0.00555768
0.0031505
0.480966
0.480966
0.480966
0.480966
0.480966
0.480966
0.480966
0.480966
0.480966
0.480966
0.480966
0.480966
0.480966
0.480966
0.480966
0.480966
0.480966
0.480966
0.480966
0.480966
0.480966
0.480966
0.480966
0.480966
0.480966
0.480966
0.480966
0.480966
0.480966
0.480966
0.480966
0.480966
0.480966
0.480966
0.480966
0.480966
0.480966
0.480966
0.480966
0.480966
0.480966
0.480966
0.480966
0.480966
0.480966
0.480966
0.480966
0.480966
0.480966
0.480966
0.480966
0.480966
0.480966
0.480966
0.480966
0.480966
0.480966
0.480966
0.480966
0.480966
0.480966
0.480966
0.480966
0.480966
0.480966
0.480966
0.480966
0.480966
0.480966
0.480966
0.480966
0.480966
0.480966
0.480966
0.480966
0.480966
0.480966
0.480966
0.480966
0.480966
0.480966
0.480966
0.480966
0.480966
0.480966
0.480966
0.480966
0.480966
0.480966
0.480966
0.480966
0.480966
0.480966
0.480966
0.480966
0.480966
0.480966
0.480966
0.480966
0.480966
0.480966
0.480966
0.480966
0.480966
0.480966
0.480966
0.480966
0.480966
0.480966
0.480966
0.480966
0.480966
0.480966
0.480966
0.480966
0.480966
0.480966
0.480966
0.480966
0.480966
0.480966
0.480966
0.480966
0.480966
0.480966
0.480966
0.480966
0.480966
0.480966
0.480966
0.480966
0.480966
0.480966
0.480966
0.480966
0.480966
0.480966
0.480966
0.480966
0.480966
0.480966
0.480966
0.480966
0.480966
0.480966
0.480966
0.480966
0.480966
0.480966
0.480966
0.480966
0.480966
0.480966
0.480966
0.480966
0.480966
0.480966
0.480966
0.480966
0.480966
0.480966
0.480966
0.480966
0.480966
0.480966
0.480966
0.480966
0.480966
0.480966
0.480966
0.480966
0.480966
0.480966
0.480966
0.480966
0.480966
0.480966
0.480966
0.480966
0.480966
0.480966
0.480966
0.480966
0.480966
0.480966
0.480966
0.480966
0.480966
0.480966
0.480966
0.480966
0.480966
0.480966
0.480966
0.480966
0.480966
0.480966
0.480966
0.480966
0.480966
0.480966
0.480966
0.480966
0.480966
0.480966
0.480966
0.480966
0.480966
0.480966
0.480966
0.480966
0.480966
0.480966
0.480966
0.480966
0.480966
0.480966
0.480966
0.480966
0.480966
0.480966
0.480966
0.480966
0.480966
0.480966
0.480966
0.480966
0.480966
0.480966
0.480966
0.480966
0.480966
0.480966
0.480966
0.480966
0.480966
0.480966
0.480966
0.480966
0.480966
0.480966
0.480966
0.475671
0.468941
0.462268
0.455652
0.449093
0.44259
0.436142
0.42975
0.423412
0.417128
0.410898
0.404721
0.398597
0.392526
0.386506
0.380538
0.37462
0.368754
0.362937
0.35717
0.351453
0.345784
0.340164
0.334592
0.329067
0.32359
0.318159
0.312775
0.307437
0.302145
0.296898
0.291695
0.286537
0.281424
0.276354
0.271327
0.266343
0.261402
0.256503
0.251646
0.24683
0.242056
0.237322
0.232629
0.227976
0.223363
0.218789
0.214254
0.209758
0.205301
0.200881
0.1965
0.192155
0.187848
0.183578
0.179344
0.175147
0.170985
0.166859
0.162768
0.158712
0.154691
0.150704
0.146752
0.142833
0.138947
0.135095
0.131276
0.127489
0.123735
0.120013
0.116322
0.112663
0.109036
0.10544
0.101874
0.0983386
0.0948336
0.0913586
0.0879133
0.0844975
0.0811109
0.0777533
0.0744244
0.071124
0.0678518
0.0646077
0.0613914
0.0582026
0.0550412
0.0519068
0.0487994
0.0457186
0.0426644
0.0396364
0.0366345
0.0336585
0.0307083
0.0277838
0.0248848
0.0220115
0.0191639
0.0163423
0.0135477
0.0107818
0.00804925
0.00536419
0.00279505
0.480254
0.480254
0.480254
0.480254
0.480254
0.480254
0.480254
0.480254
0.480254
0.480254
0.480254
0.480254
0.480254
0.480254
0.480254
0.480254
0.480254
0.480254
0.480254
0.480254
0.480254
0.480254
0.480254
0.480254
0.480254
0.480254
0.480254
0.480254
0.480254
0.480254
0.480254
0.480254
0.480254
0.480254
0.480254
0.480254
0.480254
0.480254
0.480254
0.480254
0.480254
0.480254
0.480254
0.480254
0.480254
0.480254
0.480254
0.480254
0.480254
0.480254
0.480254
0.480254
0.480254
0.480254
0.480254
0.480254
0.480254
0.480254
0.480254
0.480254
0.480254
0.480254
0.480254
0.480254
0.480254
0.480254
0.480254
0.480254
0.480254
0.480254
0.480254
0.480254
0.480254
0.480254
0.480254
0.480254
0.480254
0.480254
0.480254
0.480254
0.480254
0.480254
0.480254
0.480254
0.480254
0.480254
0.480254
0.480254
0.480254
0.480254
0.480254
0.480254
0.480254
0.480254
0.480254
0.480254
0.480254
0.480254
0.480254
0.480254
0.480254
0.480254
0.480254
0.480254
0.480254
0.480254
0.480254
0.480254
0.480254
0.480254
0.480254
0.480254
0.480254
0.480254
0.480254
0.480254
0.480254
0.480254
0.480254
0.480254
0.480254
0.480254
0.480254
0.480254
0.480254
0.480254
0.480254
0.480254
0.480254
0.480254
0.480254
0.480254
0.480254
0.480254
0.480254
0.480254
0.480254
0.480254
0.480254
0.480254
0.480254
0.480254
0.480254
0.480254
0.480254
0.480254
0.480254
0.480254
0.480254
0.480254
0.480254
0.480254
0.480254
0.480254
0.480254
0.480254
0.480254
0.480254
0.480254
0.480254
0.480254
0.480254
0.480254
0.480254
0.480254
0.480254
0.480254
0.480254
0.480254
0.480254
0.480254
0.480254
0.480254
0.480254
0.480254
0.480254
0.480254
0.480254
0.480254
0.480254
0.480254
0.480254
0.480254
0.480254
0.480254
0.480254
0.480254
0.480254
0.480254
0.480254
0.480254
0.480254
0.480254
0.480254
0.480254
0.480254
0.480254
0.480254
0.480254
0.480254
0.480254
0.480254
0.480254
0.480254
0.480254
0.480254
0.480254
0.480254
0.480254
0.480254
0.480254
0.480254
0.480254
0.480254
0.480254
0.480254
0.480254
0.480254
0.480254
0.480254
0.480254
0.480254
0.480254
0.480254
0.480254
0.480254
0.480254
0.480254
0.480254
0.480254
0.480254
0.480254
0.480254
0.480254
0.480254
0.480254
0.480254
0.480254
0.480254
0.480254
0.480254
0.480254
0.47567
0.468939
0.462267
0.455651
0.449091
0.442588
0.436141
0.429748
0.42341
0.417126
0.410896
0.40472
0.398596
0.392524
0.386504
0.380536
0.374619
0.368752
0.362936
0.357169
0.351451
0.345782
0.340162
0.33459
0.329065
0.323588
0.318158
0.312773
0.307435
0.302143
0.296896
0.291693
0.286535
0.281421
0.276351
0.271324
0.266341
0.261399
0.2565
0.251643
0.246828
0.242053
0.23732
0.232626
0.227973
0.22336
0.218786
0.214251
0.209755
0.205298
0.200878
0.196496
0.192152
0.187845
0.183575
0.179341
0.175143
0.170981
0.166855
0.162764
0.158708
0.154687
0.1507
0.146747
0.142828
0.138943
0.13509
0.131271
0.127484
0.12373
0.120007
0.116317
0.112658
0.10903
0.105434
0.101868
0.0983323
0.0948271
0.0913518
0.0879063
0.0844902
0.0811033
0.0777453
0.0744161
0.0711153
0.0678428
0.0645982
0.0613813
0.058192
0.05503
0.0518949
0.0487867
0.0457051
0.0426499
0.0396208
0.0366176
0.0336401
0.0306882
0.0277616
0.02486
0.0219834
0.0191316
0.0163045
0.0135021
0.0107244
0.00797222
0.00524791
0.00256483
0.479505
0.479505
0.479505
0.479505
0.479505
0.479505
0.479505
0.479505
0.479505
0.479505
0.479505
0.479505
0.479505
0.479505
0.479505
0.479505
0.479505
0.479505
0.479505
0.479505
0.479505
0.479505
0.479505
0.479505
0.479505
0.479505
0.479505
0.479505
0.479505
0.479505
0.479505
0.479505
0.479505
0.479505
0.479505
0.479505
0.479505
0.479505
0.479505
0.479505
0.479505
0.479505
0.479505
0.479505
0.479505
0.479505
0.479505
0.479505
0.479505
0.479505
0.479505
0.479505
0.479505
0.479505
0.479505
0.479505
0.479505
0.479505
0.479505
0.479505
0.479505
0.479505
0.479505
0.479505
0.479505
0.479505
0.479505
0.479505
0.479505
0.479505
0.479505
0.479505
0.479505
0.479505
0.479505
0.479505
0.479505
0.479505
0.479505
0.479505
0.479505
0.479505
0.479505
0.479505
0.479505
0.479505
0.479505
0.479505
0.479505
0.479505
0.479505
0.479505
0.479505
0.479505
0.479505
0.479505
0.479505
0.479505
0.479505
0.479505
0.479505
0.479505
0.479505
0.479505
0.479505
0.479505
0.479505
0.479505
0.479505
0.479505
0.479505
0.479505
0.479505
0.479505
0.479505
0.479505
0.479505
0.479505
0.479505
0.479505
0.479505
0.479505
0.479505
0.479505
0.479505
0.479505
0.479505
0.479505
0.479505
0.479505
0.479505
0.479505
0.479505
0.479505
0.479505
0.479505
0.479505
0.479505
0.479505
0.479505
0.479505
0.479505
0.479505
0.479505
0.479505
0.479505
0.479505
0.479505
0.479505
0.479505
0.479505
0.479505
0.479505
0.479505
0.479505
0.479505
0.479505
0.479505
0.479505
0.479505
0.479505
0.479505
0.479505
0.479505
0.479505
0.479505
0.479505
0.479505
0.479505
0.479505
0.479505
0.479505
0.479505
0.479505
0.479505
0.479505
0.479505
0.479505
0.479505
0.479505
0.479505
0.479505
0.479505
0.479505
0.479505
0.479505
0.479505
0.479505
0.479505
0.479505
0.479505
0.479505
0.479505
0.479505
0.479505
0.479505
0.479505
0.479505
0.479505
0.479505
0.479505
0.479505
0.479505
0.479505
0.479505
0.479505
0.479505
0.479505
0.479505
0.479505
0.479505
0.479505
0.479505
0.479505
0.479505
0.479505
0.479505
0.479505
0.479505
0.479505
0.479505
0.479505
0.479505
0.479505
0.479505
0.479505
0.479505
0.479505
0.479505
0.479505
0.479505
0.479505
0.479505
0.479505
0.479505
0.479505
0.479505
0.479505
0.479505
0.479505
0.479505
0.479505
0.47567
0.468939
0.462266
0.455651
0.449091
0.442588
0.43614
0.429748
0.42341
0.417126
0.410896
0.404719
0.398595
0.392524
0.386504
0.380536
0.374619
0.368752
0.362935
0.357168
0.351451
0.345782
0.340162
0.33459
0.329065
0.323588
0.318157
0.312773
0.307435
0.302142
0.296895
0.291693
0.286535
0.281421
0.276351
0.271324
0.26634
0.261399
0.2565
0.251643
0.246827
0.242053
0.237319
0.232626
0.227973
0.223359
0.218786
0.214251
0.209755
0.205297
0.200878
0.196496
0.192152
0.187844
0.183574
0.17934
0.175143
0.170981
0.166855
0.162764
0.158708
0.154686
0.150699
0.146747
0.142828
0.138942
0.13509
0.13127
0.127483
0.123729
0.120007
0.116316
0.112657
0.109029
0.105433
0.101867
0.0983313
0.094826
0.0913507
0.0879051
0.084489
0.081102
0.077744
0.0744147
0.0711139
0.0678413
0.0645966
0.0613797
0.0581903
0.0550281
0.051893
0.0487847
0.0457029
0.0426475
0.0396182
0.0366148
0.0336371
0.0306849
0.0277579
0.0248559
0.0219788
0.0191263
0.0162983
0.0134945
0.0107149
0.00795948
0.00522852
0.00252492
0.478716
0.478716
0.478716
0.478716
0.478716
0.478716
0.478716
0.478716
0.478716
0.478716
0.478716
0.478716
0.478716
0.478716
0.478716
0.478716
0.478716
0.478716
0.478716
0.478716
0.478716
0.478716
0.478716
0.478716
0.478716
0.478716
0.478716
0.478716
0.478716
0.478716
0.478716
0.478716
0.478716
0.478716
0.478716
0.478716
0.478716
0.478716
0.478716
0.478716
0.478716
0.478716
0.478716
0.478716
0.478716
0.478716
0.478716
0.478716
0.478716
0.478716
0.478716
0.478716
0.478716
0.478716
0.478716
0.478716
0.478716
0.478716
0.478716
0.478716
0.478716
0.478716
0.478716
0.478716
0.478716
0.478716
0.478716
0.478716
0.478716
0.478716
0.478716
0.478716
0.478716
0.478716
0.478716
0.478716
0.478716
0.478716
0.478716
0.478716
0.478716
0.478716
0.478716
0.478716
0.478716
0.478716
0.478716
0.478716
0.478716
0.478716
0.478716
0.478716
0.478716
0.478716
0.478716
0.478716
0.478716
0.478716
0.478716
0.478716
0.478716
0.478716
0.478716
0.478716
0.478716
0.478716
0.478716
0.478716
0.478716
0.478716
0.478716
0.478716
0.478716
0.478716
0.478716
0.478716
0.478716
0.478716
0.478716
0.478716
0.478716
0.478716
0.478716
0.478716
0.478716
0.478716
0.478716
0.478716
0.478716
0.478716
0.478716
0.478716
0.478716
0.478716
0.478716
0.478716
0.478716
0.478716
0.478716
0.478716
0.478716
0.478716
0.478716
0.478716
0.478716
0.478716
0.478716
0.478716
0.478716
0.478716
0.478716
0.478716
0.478716
0.478716
0.478716
0.478716
0.478716
0.478716
0.478716
0.478716
0.478716
0.478716
0.478716
0.478716
0.478716
0.478716
0.478716
0.478716
0.478716
0.478716
0.478716
0.478716
0.478716
0.478716
0.478716
0.478716
0.478716
0.478716
0.478716
0.478716
0.478716
0.478716
0.478716
0.478716
0.478716
0.478716
0.478716
0.478716
0.478716
0.478716
0.478716
0.478716
0.478716
0.478716
0.478716
0.478716
0.478716
0.478716
0.478716
0.478716
0.478716
0.478716
0.478716
0.478716
0.478716
0.478716
0.478716
0.478716
0.478716
0.478716
0.478716
0.478716
0.478716
0.478716
0.478716
0.478716
0.478716
0.478716
0.478716
0.478716
0.478716
0.478716
0.478716
0.478716
0.478716
0.478716
0.478716
0.478716
0.478716
0.478716
0.478716
0.478716
0.478716
0.478716
0.478716
0.478716
0.478716
0.478716
0.478716
0.478716
0.478716
0.478716
0.475671
0.46894
0.462267
0.455652
0.449092
0.442589
0.436142
0.429749
0.423411
0.417127
0.410897
0.404721
0.398597
0.392525
0.386505
0.380537
0.37462
0.368753
0.362937
0.35717
0.351452
0.345784
0.340163
0.334591
0.329067
0.323589
0.318159
0.312775
0.307437
0.302144
0.296897
0.291695
0.286537
0.281423
0.276353
0.271326
0.266342
0.261401
0.256502
0.251645
0.246829
0.242055
0.237321
0.232628
0.227975
0.223362
0.218788
0.214253
0.209757
0.2053
0.20088
0.196498
0.192154
0.187847
0.183577
0.179343
0.175145
0.170984
0.166858
0.162767
0.158711
0.15469
0.150703
0.14675
0.142831
0.138946
0.135093
0.131274
0.127487
0.123733
0.120011
0.11632
0.112662
0.109034
0.105437
0.101872
0.0983363
0.0948313
0.0913562
0.0879108
0.0844949
0.0811082
0.0777504
0.0744214
0.0711209
0.0678486
0.0646043
0.0613878
0.0581989
0.0550372
0.0519026
0.0487949
0.0457138
0.0426592
0.0396308
0.0366285
0.033652
0.0307012
0.0277759
0.024876
0.0220015
0.0191524
0.0163289
0.0135315
0.0107614
0.00802196
0.00532315
0.00271547
0.477887
0.477887
0.477887
0.477887
0.477887
0.477887
0.477887
0.477887
0.477887
0.477887
0.477887
0.477887
0.477887
0.477887
0.477887
0.477887
0.477887
0.477887
0.477887
0.477887
0.477887
0.477887
0.477887
0.477887
0.477887
0.477887
0.477887
0.477887
0.477887
0.477887
0.477887
0.477887
0.477887
0.477887
0.477887
0.477887
0.477887
0.477887
0.477887
0.477887
0.477887
0.477887
0.477887
0.477887
0.477887
0.477887
0.477887
0.477887
0.477887
0.477887
0.477887
0.477887
0.477887
0.477887
0.477887
0.477887
0.477887
0.477887
0.477887
0.477887
0.477887
0.477887
0.477887
0.477887
0.477887
0.477887
0.477887
0.477887
0.477887
0.477887
0.477887
0.477887
0.477887
0.477887
0.477887
0.477887
0.477887
0.477887
0.477887
0.477887
0.477887
0.477887
0.477887
0.477887
0.477887
0.477887
0.477887
0.477887
0.477887
0.477887
0.477887
0.477887
0.477887
0.477887
0.477887
0.477887
0.477887
0.477887
0.477887
0.477887
0.477887
0.477887
0.477887
0.477887
0.477887
0.477887
0.477887
0.477887
0.477887
0.477887
0.477887
0.477887
0.477887
0.477887
0.477887
0.477887
0.477887
0.477887
0.477887
0.477887
0.477887
0.477887
0.477887
0.477887
0.477887
0.477887
0.477887
0.477887
0.477887
0.477887
0.477887
0.477887
0.477887
0.477887
0.477887
0.477887
0.477887
0.477887
0.477887
0.477887
0.477887
0.477887
0.477887
0.477887
0.477887
0.477887
0.477887
0.477887
0.477887
0.477887
0.477887
0.477887
0.477887
0.477887
0.477887
0.477887
0.477887
0.477887
0.477887
0.477887
0.477887
0.477887
0.477887
0.477887
0.477887
0.477887
0.477887
0.477887
0.477887
0.477887
0.477887
0.477887
0.477887
0.477887
0.477887
0.477887
0.477887
0.477887
0.477887
0.477887
0.477887
0.477887
0.477887
0.477887
0.477887
0.477887
0.477887
0.477887
0.477887
0.477887
0.477887
0.477887
0.477887
0.477887
0.477887
0.477887
0.477887
0.477887
0.477887
0.477887
0.477887
0.477887
0.477887
0.477887
0.477887
0.477887
0.477887
0.477887
0.477887
0.477887
0.477887
0.477887
0.477887
0.477887
0.477887
0.477887
0.477887
0.477887
0.477887
0.477887
0.477887
0.477887
0.477887
0.477887
0.477887
0.477887
0.477887
0.477887
0.477887
0.477887
0.477887
0.477887
0.477887
0.477887
0.477887
0.477887
0.477887
0.477887
0.477887
0.477887
0.477887
0.477887
0.477887
0.468943
0.46227
0.455654
0.449095
0.442592
0.436144
0.429752
0.423414
0.41713
0.4109
0.404724
0.3986
0.392528
0.386508
0.38054
0.374623
0.368756
0.36294
0.357173
0.351456
0.345787
0.340167
0.334595
0.32907
0.323593
0.318163
0.312779
0.30744
0.302148
0.296901
0.291699
0.286541
0.281427
0.276357
0.27133
0.266347
0.261405
0.256507
0.25165
0.246834
0.24206
0.237326
0.232633
0.22798
0.223367
0.218793
0.214259
0.209763
0.205305
0.200886
0.196505
0.19216
0.187853
0.183583
0.17935
0.175152
0.170991
0.166865
0.162774
0.158718
0.154697
0.150711
0.146758
0.142839
0.138954
0.135102
0.131283
0.127497
0.123743
0.120021
0.116331
0.112672
0.109045
0.105449
0.101883
0.0983485
0.0948439
0.0913693
0.0879244
0.084509
0.0811229
0.0777658
0.0744375
0.0711377
0.0678662
0.0646228
0.0614073
0.0582194
0.0550589
0.0519257
0.0488194
0.04574
0.0426872
0.039661
0.0366611
0.0336875
0.0307401
0.0278189
0.0249241
0.0220558
0.0192148
0.016402
0.0136196
0.010872
0.00816971
0.00554331
0.00312507
0.477014
0.477014
0.477014
0.477014
0.477014
0.477014
0.477014
0.477014
0.477014
0.477014
0.477014
0.477014
0.477014
0.477014
0.477014
0.477014
0.477014
0.477014
0.477014
0.477014
0.477014
0.477014
0.477014
0.477014
0.477014
0.477014
0.477014
0.477014
0.477014
0.477014
0.477014
0.477014
0.477014
0.477014
0.477014
0.477014
0.477014
0.477014
0.477014
0.477014
0.477014
0.477014
0.477014
0.477014
0.477014
0.477014
0.477014
0.477014
0.477014
0.477014
0.477014
0.477014
0.477014
0.477014
0.477014
0.477014
0.477014
0.477014
0.477014
0.477014
0.477014
0.477014
0.477014
0.477014
0.477014
0.477014
0.477014
0.477014
0.477014
0.477014
0.477014
0.477014
0.477014
0.477014
0.477014
0.477014
0.477014
0.477014
0.477014
0.477014
0.477014
0.477014
0.477014
0.477014
0.477014
0.477014
0.477014
0.477014
0.477014
0.477014
0.477014
0.477014
0.477014
0.477014
0.477014
0.477014
0.477014
0.477014
0.477014
0.477014
0.477014
0.477014
0.477014
0.477014
0.477014
0.477014
0.477014
0.477014
0.477014
0.477014
0.477014
0.477014
0.477014
0.477014
0.477014
0.477014
0.477014
0.477014
0.477014
0.477014
0.477014
0.477014
0.477014
0.477014
0.477014
0.477014
0.477014
0.477014
0.477014
0.477014
0.477014
0.477014
0.477014
0.477014
0.477014
0.477014
0.477014
0.477014
0.477014
0.477014
0.477014
0.477014
0.477014
0.477014
0.477014
0.477014
0.477014
0.477014
0.477014
0.477014
0.477014
0.477014
0.477014
0.477014
0.477014
0.477014
0.477014
0.477014
0.477014
0.477014
0.477014
0.477014
0.477014
0.477014
0.477014
0.477014
0.477014
0.477014
0.477014
0.477014
0.477014
0.477014
0.477014
0.477014
0.477014
0.477014
0.477014
0.477014
0.477014
0.477014
0.477014
0.477014
0.477014
0.477014
0.477014
0.477014
0.477014
0.477014
0.477014
0.477014
0.477014
0.477014
0.477014
0.477014
0.477014
0.477014
0.477014
0.477014
0.477014
0.477014
0.477014
0.477014
0.477014
0.477014
0.477014
0.477014
0.477014
0.477014
0.477014
0.477014
0.477014
0.477014
0.477014
0.477014
0.477014
0.477014
0.477014
0.477014
0.477014
0.477014
0.477014
0.477014
0.477014
0.477014
0.477014
0.477014
0.477014
0.477014
0.477014
0.477014
0.477014
0.477014
0.477014
0.477014
0.477014
0.477014
0.477014
0.477014
0.477014
0.477014
0.477014
0.477014
0.477014
0.468947
0.462274
0.455659
0.449099
0.442596
0.436149
0.429756
0.423419
0.417135
0.410905
0.404729
0.398605
0.392533
0.386514
0.380546
0.374628
0.368762
0.362945
0.357179
0.351461
0.345793
0.340173
0.334601
0.329076
0.323599
0.318169
0.312785
0.307447
0.302155
0.296908
0.291706
0.286548
0.281434
0.276364
0.271338
0.266354
0.261413
0.256514
0.251658
0.246842
0.242068
0.237335
0.232642
0.227989
0.223376
0.218802
0.214268
0.209772
0.205315
0.200896
0.196515
0.192171
0.187864
0.183594
0.179361
0.175164
0.171002
0.166877
0.162786
0.158731
0.15471
0.150724
0.146772
0.142853
0.138969
0.135117
0.131298
0.127512
0.123759
0.120037
0.116348
0.11269
0.109063
0.105468
0.101903
0.0983688
0.094865
0.0913912
0.0879471
0.0845327
0.0811476
0.0777915
0.0744644
0.0711658
0.0678957
0.0646538
0.0614399
0.0582538
0.0550952
0.0519642
0.0488604
0.0457837
0.0427341
0.0397114
0.0367156
0.0337468
0.0308051
0.0278907
0.0250042
0.0221464
0.0193186
0.0165235
0.0137657
0.0110545
0.00841108
0.00589325
0.00371055
0.476096
0.476096
0.476096
0.476096
0.476096
0.476096
0.476096
0.476096
0.476096
0.476096
0.476096
0.476096
0.476096
0.476096
0.476096
0.476096
0.476096
0.476096
0.476096
0.476096
0.476096
0.476096
0.476096
0.476096
0.476096
0.476096
0.476096
0.476096
0.476096
0.476096
0.476096
0.476096
0.476096
0.476096
0.476096
0.476096
0.476096
0.476096
0.476096
0.476096
0.476096
0.476096
0.476096
0.476096
0.476096
0.476096
0.476096
0.476096
0.476096
0.476096
0.476096
0.476096
0.476096
0.476096
0.476096
0.476096
0.476096
0.476096
0.476096
0.476096
0.476096
0.476096
0.476096
0.476096
0.476096
0.476096
0.476096
0.476096
0.476096
0.476096
0.476096
0.476096
0.476096
0.476096
0.476096
0.476096
0.476096
0.476096
0.476096
0.476096
0.476096
0.476096
0.476096
0.476096
0.476096
0.476096
0.476096
0.476096
0.476096
0.476096
0.476096
0.476096
0.476096
0.476096
0.476096
0.476096
0.476096
0.476096
0.476096
0.476096
0.476096
0.476096
0.476096
0.476096
0.476096
0.476096
0.476096
0.476096
0.476096
0.476096
0.476096
0.476096
0.476096
0.476096
0.476096
0.476096
0.476096
0.476096
0.476096
0.476096
0.476096
0.476096
0.476096
0.476096
0.476096
0.476096
0.476096
0.476096
0.476096
0.476096
0.476096
0.476096
0.476096
0.476096
0.476096
0.476096
0.476096
0.476096
0.476096
0.476096
0.476096
0.476096
0.476096
0.476096
0.476096
0.476096
0.476096
0.476096
0.476096
0.476096
0.476096
0.476096
0.476096
0.476096
0.476096
0.476096
0.476096
0.476096
0.476096
0.476096
0.476096
0.476096
0.476096
0.476096
0.476096
0.476096
0.476096
0.476096
0.476096
0.476096
0.476096
0.476096
0.476096
0.476096
0.476096
0.476096
0.476096
0.476096
0.476096
0.476096
0.476096
0.476096
0.476096
0.476096
0.476096
0.476096
0.476096
0.476096
0.476096
0.476096
0.476096
0.476096
0.476096
0.476096
0.476096
0.476096
0.476096
0.476096
0.476096
0.476096
0.476096
0.476096
0.476096
0.476096
0.476096
0.476096
0.476096
0.476096
0.476096
0.476096
0.476096
0.476096
0.476096
0.476096
0.476096
0.476096
0.476096
0.476096
0.476096
0.476096
0.476096
0.476096
0.476096
0.476096
0.476096
0.476096
0.476096
0.476096
0.476096
0.476096
0.476096
0.476096
0.476096
0.476096
0.476096
0.476096
0.476096
0.476096
0.476096
0.476096
0.476096
0.476096
0.476096
0.468953
0.462281
0.455665
0.449106
0.442603
0.436156
0.429763
0.423426
0.417142
0.410912
0.404736
0.398612
0.392541
0.386521
0.380553
0.374636
0.36877
0.362953
0.357187
0.35147
0.345801
0.340181
0.334609
0.329085
0.323608
0.318178
0.312794
0.307457
0.302164
0.296918
0.291716
0.286558
0.281445
0.276375
0.271349
0.266365
0.261424
0.256526
0.251669
0.246854
0.24208
0.237347
0.232654
0.228002
0.223389
0.218816
0.214282
0.209786
0.205329
0.200911
0.19653
0.192186
0.18788
0.18361
0.179377
0.17518
0.17102
0.166894
0.162804
0.158749
0.154729
0.150743
0.146792
0.142874
0.13899
0.135139
0.131321
0.127535
0.123782
0.120062
0.116373
0.112716
0.10909
0.105495
0.101932
0.0983986
0.0948958
0.0914232
0.0879804
0.0845673
0.0811836
0.0778292
0.0745037
0.071207
0.0679388
0.0646991
0.0614875
0.058304
0.0551484
0.0520205
0.0489203
0.0458476
0.0428025
0.0397851
0.0367953
0.0338335
0.0309
0.0279955
0.025121
0.0222782
0.0194696
0.0166998
0.0139768
0.0113162
0.00875218
0.00637063
0.00442975
0.47513
0.47513
0.47513
0.47513
0.47513
0.47513
0.47513
0.47513
0.47513
0.47513
0.47513
0.47513
0.47513
0.47513
0.47513
0.47513
0.47513
0.47513
0.47513
0.47513
0.47513
0.47513
0.47513
0.47513
0.47513
0.47513
0.47513
0.47513
0.47513
0.47513
0.47513
0.47513
0.47513
0.47513
0.47513
0.47513
0.47513
0.47513
0.47513
0.47513
0.47513
0.47513
0.47513
0.47513
0.47513
0.47513
0.47513
0.47513
0.47513
0.47513
0.47513
0.47513
0.47513
0.47513
0.47513
0.47513
0.47513
0.47513
0.47513
0.47513
0.47513
0.47513
0.47513
0.47513
0.47513
0.47513
0.47513
0.47513
0.47513
0.47513
0.47513
0.47513
0.47513
0.47513
0.47513