    1C
    1UUSER                                                              
    1UDATE              10.november.2013                                
    1UTIME              19:55:23                                        
    1UHOST                                                              
    1UPGM               CalculiX                                        
    1UDIR                                                               
    1UDBN                                                               
    2C                           171                                     1
 -1         1 1.00000E+01 5.00000E-01-5.00000E-01
 -1         2 1.00000E+01 0.00000E+00-5.00000E-01
 -1         3 1.00000E+01 0.00000E+00 0.00000E+00
 -1         4 1.00000E+01 5.00000E-01 0.00000E+00
 -1         5 8.00000E+00 5.00000E-01-5.00000E-01
 -1         6 8.00000E+00 0.00000E+00-5.00000E-01
 -1         7 8.00000E+00 0.00000E+00 0.00000E+00
 -1         8 8.00000E+00 5.00000E-01-1.38778E-17
 -1         9 1.00000E+01 2.50000E-01-5.00000E-01
 -1        10 1.00000E+01 0.00000E+00-2.50000E-01
 -1        11 1.00000E+01 2.50000E-01 0.00000E+00
 -1        12 1.00000E+01 5.00000E-01-2.50000E-01
 -1        13 9.00000E+00 5.00000E-01-5.00000E-01
 -1        14 9.00000E+00 0.00000E+00-5.00000E-01
 -1        15 9.00000E+00 0.00000E+00 0.00000E+00
 -1        16 9.00000E+00 5.00000E-01-6.93889E-18
 -1        17 8.00000E+00 2.50000E-01-5.00000E-01
 -1        18 8.00000E+00 0.00000E+00-2.50000E-01
 -1        19 8.00000E+00 2.50000E-01 0.00000E+00
 -1        20 8.00000E+00 5.00000E-01-2.50000E-01
 -1        21 1.00000E+01 0.00000E+00 5.00000E-01
 -1        22 1.00000E+01 5.00000E-01 5.00000E-01
 -1        23 8.00000E+00 0.00000E+00 5.00000E-01
 -1        24 8.00000E+00 5.00000E-01 5.00000E-01
 -1        25 1.00000E+01 0.00000E+00 2.50000E-01
 -1        26 1.00000E+01 2.50000E-01 5.00000E-01
 -1        27 1.00000E+01 5.00000E-01 2.50000E-01
 -1        28 9.00000E+00 0.00000E+00 5.00000E-01
 -1        29 9.00000E+00 5.00000E-01 5.00000E-01
 -1        30 8.00000E+00 0.00000E+00 2.50000E-01
 -1        31 8.00000E+00 2.50000E-01 5.00000E-01
 -1        32 8.00000E+00 5.00000E-01 2.50000E-01
 -1        33 6.00000E+00 5.00000E-01-5.00000E-01
 -1        34 6.00000E+00 0.00000E+00-5.00000E-01
 -1        35 6.00000E+00 0.00000E+00 0.00000E+00
 -1        36 6.00000E+00 5.00000E-01 0.00000E+00
 -1        37 7.00000E+00 5.00000E-01-5.00000E-01
 -1        38 7.00000E+00 0.00000E+00-5.00000E-01
 -1        39 7.00000E+00 0.00000E+00 0.00000E+00
 -1        40 7.00000E+00 5.00000E-01 1.38778E-17
 -1        41 6.00000E+00 2.50000E-01-5.00000E-01
 -1        42 6.00000E+00 0.00000E+00-2.50000E-01
 -1        43 6.00000E+00 2.50000E-01 0.00000E+00
 -1        44 6.00000E+00 5.00000E-01-2.50000E-01
 -1        45 6.00000E+00 0.00000E+00 5.00000E-01
 -1        46 6.00000E+00 5.00000E-01 5.00000E-01
 -1        47 7.00000E+00 0.00000E+00 5.00000E-01
 -1        48 7.00000E+00 5.00000E-01 5.00000E-01
 -1        49 6.00000E+00 0.00000E+00 2.50000E-01
 -1        50 6.00000E+00 2.50000E-01 5.00000E-01
 -1        51 6.00000E+00 5.00000E-01 2.50000E-01
 -1        52 4.00000E+00 5.00000E-01-5.00000E-01
 -1        53 4.00000E+00 0.00000E+00-5.00000E-01
 -1        54 4.00000E+00 0.00000E+00 0.00000E+00
 -1        55 4.00000E+00 5.00000E-01 0.00000E+00
 -1        56 5.00000E+00 5.00000E-01-5.00000E-01
 -1        57 5.00000E+00 0.00000E+00-5.00000E-01
 -1        58 5.00000E+00 0.00000E+00 0.00000E+00
 -1        59 5.00000E+00 5.00000E-01 0.00000E+00
 -1        60 4.00000E+00 2.50000E-01-5.00000E-01
 -1        61 4.00000E+00 0.00000E+00-2.50000E-01
 -1        62 4.00000E+00 2.50000E-01 0.00000E+00
 -1        63 4.00000E+00 5.00000E-01-2.50000E-01
 -1        64 4.00000E+00 0.00000E+00 5.00000E-01
 -1        65 4.00000E+00 5.00000E-01 5.00000E-01
 -1        66 5.00000E+00 0.00000E+00 5.00000E-01
 -1        67 5.00000E+00 5.00000E-01 5.00000E-01
 -1        68 4.00000E+00 0.00000E+00 2.50000E-01
 -1        69 4.00000E+00 2.50000E-01 5.00000E-01
 -1        70 4.00000E+00 5.00000E-01 2.50000E-01
 -1        71 2.00000E+00 5.00000E-01-5.00000E-01
 -1        72 2.00000E+00-1.38778E-17-5.00000E-01
 -1        73 2.00000E+00-1.38778E-17 0.00000E+00
 -1        74 2.00000E+00 5.00000E-01 0.00000E+00
 -1        75 3.00000E+00 5.00000E-01-5.00000E-01
 -1        76 3.00000E+00 1.38778E-17-5.00000E-01
 -1        77 3.00000E+00 1.38778E-17 0.00000E+00
 -1        78 3.00000E+00 5.00000E-01 0.00000E+00
 -1        79 2.00000E+00 2.50000E-01-5.00000E-01
 -1        80 2.00000E+00-1.38778E-17-2.50000E-01
 -1        81 2.00000E+00 2.50000E-01 0.00000E+00
 -1        82 2.00000E+00 5.00000E-01-2.50000E-01
 -1        83 2.00000E+00-1.38778E-17 5.00000E-01
 -1        84 2.00000E+00 5.00000E-01 5.00000E-01
 -1        85 3.00000E+00 1.38778E-17 5.00000E-01
 -1        86 3.00000E+00 5.00000E-01 5.00000E-01
 -1        87 2.00000E+00-1.38778E-17 2.50000E-01
 -1        88 2.00000E+00 2.50000E-01 5.00000E-01
 -1        89 2.00000E+00 5.00000E-01 2.50000E-01
 -1        90 0.00000E+00 5.00000E-01-5.00000E-01
 -1        91 0.00000E+00 0.00000E+00-5.00000E-01
 -1        92 0.00000E+00 0.00000E+00 0.00000E+00
 -1        93 0.00000E+00 5.00000E-01 0.00000E+00
 -1        94 1.00000E+00 5.00000E-01-5.00000E-01
 -1        95 1.00000E+00-6.93889E-18-5.00000E-01
 -1        96 1.00000E+00-6.93889E-18 0.00000E+00
 -1        97 1.00000E+00 5.00000E-01 0.00000E+00
 -1        98 0.00000E+00 2.50000E-01-5.00000E-01
 -1        99 0.00000E+00 0.00000E+00-2.50000E-01
 -1       100 0.00000E+00 2.50000E-01 0.00000E+00
 -1       101 0.00000E+00 5.00000E-01-2.50000E-01
 -1       102 0.00000E+00 0.00000E+00 5.00000E-01
 -1       103 0.00000E+00 5.00000E-01 5.00000E-01
 -1       104 1.00000E+00-6.93889E-18 5.00000E-01
 -1       105 1.00000E+00 5.00000E-01 5.00000E-01
 -1       106 0.00000E+00 0.00000E+00 2.50000E-01
 -1       107 0.00000E+00 2.50000E-01 5.00000E-01
 -1       108 0.00000E+00 5.00000E-01 2.50000E-01
 -1       109 1.00000E+01-5.00000E-01-5.00000E-01
 -1       110 1.00000E+01-5.00000E-01 0.00000E+00
 -1       111 8.00000E+00-5.00000E-01-5.00000E-01
 -1       112 8.00000E+00-5.00000E-01 0.00000E+00
 -1       113 1.00000E+01-2.50000E-01-5.00000E-01
 -1       114 1.00000E+01-5.00000E-01-2.50000E-01
 -1       115 1.00000E+01-2.50000E-01 0.00000E+00
 -1       116 9.00000E+00-5.00000E-01-5.00000E-01
 -1       117 9.00000E+00-5.00000E-01 0.00000E+00
 -1       118 8.00000E+00-2.50000E-01-5.00000E-01
 -1       119 8.00000E+00-5.00000E-01-2.50000E-01
 -1       120 8.00000E+00-2.50000E-01 0.00000E+00
 -1       121 1.00000E+01-5.00000E-01 5.00000E-01
 -1       122 8.00000E+00-5.00000E-01 5.00000E-01
 -1       123 1.00000E+01-5.00000E-01 2.50000E-01
 -1       124 1.00000E+01-2.50000E-01 5.00000E-01
 -1       125 9.00000E+00-5.00000E-01 5.00000E-01
 -1       126 8.00000E+00-5.00000E-01 2.50000E-01
 -1       127 8.00000E+00-2.50000E-01 5.00000E-01
 -1       128 6.00000E+00-5.00000E-01-5.00000E-01
 -1       129 6.00000E+00-5.00000E-01 0.00000E+00
 -1       130 7.00000E+00-5.00000E-01-5.00000E-01
 -1       131 7.00000E+00-5.00000E-01 0.00000E+00
 -1       132 6.00000E+00-2.50000E-01-5.00000E-01
 -1       133 6.00000E+00-5.00000E-01-2.50000E-01
 -1       134 6.00000E+00-2.50000E-01 0.00000E+00
 -1       135 6.00000E+00-5.00000E-01 5.00000E-01
 -1       136 7.00000E+00-5.00000E-01 5.00000E-01
 -1       137 6.00000E+00-5.00000E-01 2.50000E-01
 -1       138 6.00000E+00-2.50000E-01 5.00000E-01
 -1       139 4.00000E+00-5.00000E-01-5.00000E-01
 -1       140 4.00000E+00-5.00000E-01 0.00000E+00
 -1       141 5.00000E+00-5.00000E-01-5.00000E-01
 -1       142 5.00000E+00-5.00000E-01 0.00000E+00
 -1       143 4.00000E+00-2.50000E-01-5.00000E-01
 -1       144 4.00000E+00-5.00000E-01-2.50000E-01
 -1       145 4.00000E+00-2.50000E-01 0.00000E+00
 -1       146 4.00000E+00-5.00000E-01 5.00000E-01
 -1       147 5.00000E+00-5.00000E-01 5.00000E-01
 -1       148 4.00000E+00-5.00000E-01 2.50000E-01
 -1       149 4.00000E+00-2.50000E-01 5.00000E-01
 -1       150 2.00000E+00-5.00000E-01-5.00000E-01
 -1       151 2.00000E+00-5.00000E-01-1.38778E-17
 -1       152 3.00000E+00-5.00000E-01-5.00000E-01
 -1       153 3.00000E+00-5.00000E-01 1.38778E-17
 -1       154 2.00000E+00-2.50000E-01-5.00000E-01
 -1       155 2.00000E+00-5.00000E-01-2.50000E-01
 -1       156 2.00000E+00-2.50000E-01 0.00000E+00
 -1       157 2.00000E+00-5.00000E-01 5.00000E-01
 -1       158 3.00000E+00-5.00000E-01 5.00000E-01
 -1       159 2.00000E+00-5.00000E-01 2.50000E-01
 -1       160 2.00000E+00-2.50000E-01 5.00000E-01
 -1       161 0.00000E+00-5.00000E-01-5.00000E-01
 -1       162 0.00000E+00-5.00000E-01 0.00000E+00
 -1       163 1.00000E+00-5.00000E-01-5.00000E-01
 -1       164 1.00000E+00-5.00000E-01-6.93889E-18
 -1       165 0.00000E+00-2.50000E-01-5.00000E-01
 -1       166 0.00000E+00-5.00000E-01-2.50000E-01
 -1       167 0.00000E+00-2.50000E-01 0.00000E+00
 -1       168 0.00000E+00-5.00000E-01 5.00000E-01
 -1       169 1.00000E+00-5.00000E-01 5.00000E-01
 -1       170 0.00000E+00-5.00000E-01 2.50000E-01
 -1       171 0.00000E+00-2.50000E-01 5.00000E-01
 -3
    3C                            20                                     1
 -1         1    4    0MATER
 -2         1         2         3         4         5         6         7         8         9        10
 -2        11        12        13        14        15        16        17        18        19        20
 -1         2    4    0MATER
 -2         4         3        21        22         8         7        23        24        11        25
 -2        26        27        16        15        28        29        19        30        31        32
 -1         3    4    0MATER
 -2         5         6         7         8        33        34        35        36        17        18
 -2        19        20        37        38        39        40        41        42        43        44
 -1         4    4    0MATER
 -2         8         7        23        24        36        35        45        46        19        30
 -2        31        32        40        39        47        48        43        49        50        51
 -1         5    4    0MATER
 -2        33        34        35        36        52        53        54        55        41        42
 -2        43        44        56        57        58        59        60        61        62        63
 -1         6    4    0MATER
 -2        36        35        45        46        55        54        64        65        43        49
 -2        50        51        59        58        66        67        62        68        69        70
 -1         7    4    0MATER
 -2        52        53        54        55        71        72        73        74        60        61
 -2        62        63        75        76        77        78        79        80        81        82
 -1         8    4    0MATER
 -2        55        54        64        65        74        73        83        84        62        68
 -2        69        70        78        77        85        86        81        87        88        89
 -1         9    4    0MATER
 -2        71        72        73        74        90        91        92        93        79        80
 -2        81        82        94        95        96        97        98        99       100       101
 -1        10    4    0MATER
 -2        74        73        83        84        93        92       102       103        81        87
 -2        88        89        97        96       104       105       100       106       107       108
 -1        11    4    0MATER
 -2         2       109       110         3         6       111       112         7       113       114
 -2       115        10        14       116       117        15       118       119       120        18
 -1        12    4    0MATER
 -2         3       110       121        21         7       112       122        23       115       123
 -2       124        25        15       117       125        28       120       126       127        30
 -1        13    4    0MATER
 -2         6       111       112         7        34       128       129        35       118       119
 -2       120        18        38       130       131        39       132       133       134        42
 -1        14    4    0MATER
 -2         7       112       122        23        35       129       135        45       120       126
 -2       127        30        39       131       136        47       134       137       138        49
 -1        15    4    0MATER
 -2        34       128       129        35        53       139       140        54       132       133
 -2       134        42        57       141       142        58       143       144       145        61
 -1        16    4    0MATER
 -2        35       129       135        45        54       140       146        64       134       137
 -2       138        49        58       142       147        66       145       148       149        68
 -1        17    4    0MATER
 -2        53       139       140        54        72       150       151        73       143       144
 -2       145        61        76       152       153        77       154       155       156        80
 -1        18    4    0MATER
 -2        54       140       146        64        73       151       157        83       145       148
 -2       149        68        77       153       158        85       156       159       160        87
 -1        19    4    0MATER
 -2        72       150       151        73        91       161       162        92       154       155
 -2       156        80        95       163       164        96       165       166       167        99
 -1        20    4    0MATER
 -2        73       151       157        83        92       162       168       102       156       159
 -2       160        87        96       164       169       104       167       170       171       106
 -3
    1PSTEP                         1           1           1          
  100CL  101 1.000000000         171                     0    1           1
 -4  DISP        4    1
 -5  D1          1    2    1    0
 -5  D2          1    2    2    0
 -5  D3          1    2    3    0
 -5  ALL         1    2    0    0    1ALL
 -1         1-1.47690E-08 1.96166E-07 5.31485E-11
 -1         2-1.63237E-19 1.96042E-07-2.23994E-18
 -1         3-2.23174E-21 1.96010E-07-2.23996E-18
 -1         4-1.47459E-08 1.96015E-07-2.22161E-18
 -1         5-1.41459E-08 1.37657E-07-9.65659E-11
 -1         6-1.59733E-19 1.37610E-07-1.59921E-18
 -1         7-2.03738E-21 1.37656E-07-1.59885E-18
 -1         8-1.41495E-08 1.37695E-07-1.57979E-18
 -1         9-7.36408E-09 1.96091E-07 4.28050E-12
 -1        10-8.26895E-20 1.96033E-07-2.23989E-18
 -1        11-7.36544E-09 1.96013E-07-2.23072E-18
 -1        12-1.47614E-08 1.96059E-07 2.32890E-11
 -1        13-1.45656E-08 1.66553E-07-3.44072E-11
 -1        14-1.62311E-19 1.66528E-07-1.91798E-18
 -1        15-2.21701E-21 1.66547E-07-1.91788E-18
 -1        16-1.45715E-08 1.66576E-07-1.89917E-18
 -1        17-7.06259E-09 1.37626E-07-4.25700E-11
 -1        18-8.07876E-20 1.37642E-07-1.59899E-18
 -1        19-7.06438E-09 1.37664E-07-1.58940E-18
 -1        20-1.41503E-08 1.37695E-07-4.73362E-11
 -1        21 1.58780E-19 1.96042E-07-2.23997E-18
 -1        22-1.47690E-08 1.96166E-07-5.31485E-11
 -1        23 1.55623E-19 1.37610E-07-1.59907E-18
 -1        24-1.41459E-08 1.37657E-07 9.65659E-11
 -1        25 7.82526E-20 1.96033E-07-2.24001E-18
 -1        26-7.36408E-09 1.96091E-07-4.28051E-12
 -1        27-1.47614E-08 1.96059E-07-2.32890E-11
 -1        28 1.57891E-19 1.66528E-07-1.91801E-18
 -1        29-1.45656E-08 1.66553E-07 3.44072E-11
 -1        30 7.66879E-20 1.37642E-07-1.59888E-18
 -1        31-7.06259E-09 1.37626E-07 4.25700E-11
 -1        32-1.41503E-08 1.37695E-07 4.73362E-11
 -1        33-1.23441E-08 8.40824E-08-1.77667E-10
 -1        34-1.43670E-19 8.39888E-08-9.92544E-19
 -1        35-1.60184E-21 8.40777E-08-9.91592E-19
 -1        36-1.23486E-08 8.41681E-08-9.76562E-19
 -1        37-1.33658E-08 1.09962E-07-1.37879E-10
 -1        38-1.53197E-19 1.09900E-07-1.28817E-18
 -1        39-1.74639E-21 1.09968E-07-1.28752E-18
 -1        40-1.33716E-08 1.10035E-07-1.27018E-18
 -1        41-6.15988E-09 8.40112E-08-9.03268E-11
 -1        42-7.25007E-20 8.40572E-08-9.91793E-19
 -1        43-6.16482E-09 8.40994E-08-9.84312E-19
 -1        44-1.23488E-08 8.41466E-08-8.90534E-11
 -1        45 1.40458E-19 8.39888E-08-9.92544E-19
 -1        46-1.23441E-08 8.40824E-08 1.77667E-10
 -1        47 1.49694E-19 1.09900E-07-1.28811E-18
 -1        48-1.33658E-08 1.09962E-07 1.37879E-10
 -1        49 6.92840E-20 8.40572E-08-9.91842E-19
 -1        50-6.15988E-09 8.40112E-08 9.03268E-11
 -1        51-1.23488E-08 8.41466E-08 8.90534E-11
 -1        52-9.34907E-09 4.00922E-08-2.68264E-10
 -1        53-1.11319E-19 3.99637E-08-4.80902E-19
 -1        54-1.10056E-21 4.00968E-08-4.79418E-19
 -1        55-9.35829E-09 4.02275E-08-4.69444E-19
 -1        56-1.09663E-08 6.05917E-08-2.24144E-10
 -1        57-1.29116E-19 6.04780E-08-7.20912E-19
 -1        58-1.36671E-21 6.05904E-08-7.19654E-19
 -1        59-1.09709E-08 6.07033E-08-7.06947E-19
 -1        60-4.66267E-09 3.99983E-08-1.33762E-10
 -1        61-5.60800E-20 4.00601E-08-4.79833E-19
 -1        62-4.66948E-09 4.01324E-08-4.74754E-19
 -1        63-9.35624E-09 4.01904E-08-1.34039E-10
 -1        64 1.09141E-19 3.99637E-08-4.80838E-19
 -1        65-9.34907E-09 4.00922E-08 2.68264E-10
 -1        66 1.26372E-19 6.04780E-08-7.20820E-19
 -1        67-1.09663E-08 6.05917E-08 2.24144E-10
 -1        68 5.38989E-20 4.00601E-08-4.79799E-19
 -1        69-4.66267E-09 3.99983E-08 1.33762E-10
 -1        70-9.35624E-09 4.01904E-08 1.34039E-10
 -1        71-5.13973E-09 1.04985E-08-3.17804E-10
 -1        72-6.26855E-20 1.03478E-08-1.29209E-19
 -1        73-5.44905E-22 1.05093E-08-1.27372E-19
 -1        74-5.17077E-09 1.06632E-08-1.21305E-19
 -1        75-7.36972E-09 2.32027E-08-3.16305E-10
 -1        76-8.84854E-20 2.30398E-08-2.81160E-19
 -1        77-8.06553E-22 2.31982E-08-2.79264E-19
 -1        78-7.37067E-09 2.33599E-08-2.71043E-19
 -1        79-2.55644E-09 1.03635E-08-1.59135E-10
 -1        80-3.14350E-20 1.04876E-08-1.27578E-19
 -1        81-2.57234E-09 1.05261E-08-1.25043E-19
 -1        82-5.15633E-09 1.06396E-08-1.58615E-10
 -1        83 6.16081E-20 1.03478E-08-1.29134E-19
 -1        84-5.13973E-09 1.04985E-08 3.17804E-10
 -1        85 8.68546E-20 2.30398E-08-2.81091E-19
 -1        86-7.36972E-09 2.32027E-08 3.16305E-10
 -1        87 3.03494E-20 1.04876E-08-1.27541E-19
 -1        88-2.55644E-09 1.03635E-08 1.59135E-10
 -1        89-5.15633E-09 1.06396E-08 1.58615E-10
 -1        90 0.00000E+00 0.00000E+00 0.00000E+00
 -1        91 0.00000E+00 0.00000E+00 0.00000E+00
 -1        92 0.00000E+00 0.00000E+00 0.00000E+00
 -1        93 0.00000E+00 0.00000E+00 0.00000E+00
 -1        94-2.56589E-09 2.68048E-09-4.31926E-10
 -1        95-3.09645E-20 2.46009E-09-3.53019E-20
 -1        96-2.46430E-22 2.66752E-09-3.25911E-20
 -1        97-2.53845E-09 2.88929E-09-2.80910E-20
 -1        98 0.00000E+00 0.00000E+00 0.00000E+00
 -1        99 0.00000E+00 0.00000E+00 0.00000E+00
 -1       100 0.00000E+00 0.00000E+00 0.00000E+00
 -1       101 0.00000E+00 0.00000E+00 0.00000E+00
 -1       102 0.00000E+00 0.00000E+00 0.00000E+00
 -1       103 0.00000E+00 0.00000E+00 0.00000E+00
 -1       104 3.04654E-20 2.46009E-09-3.52153E-20
 -1       105-2.56589E-09 2.68048E-09 4.31926E-10
 -1       106 0.00000E+00 0.00000E+00 0.00000E+00
 -1       107 0.00000E+00 0.00000E+00 0.00000E+00
 -1       108 0.00000E+00 0.00000E+00 0.00000E+00
 -1       109 1.47690E-08 1.96166E-07-5.31485E-11
 -1       110 1.47459E-08 1.96015E-07-2.25825E-18
 -1       111 1.41459E-08 1.37657E-07 9.65659E-11
 -1       112 1.41495E-08 1.37695E-07-1.61722E-18
 -1       113 7.36408E-09 1.96091E-07-4.28051E-12
 -1       114 1.47614E-08 1.96059E-07-2.32890E-11
 -1       115 7.36544E-09 1.96013E-07-2.24905E-18
 -1       116 1.45656E-08 1.66553E-07 3.44072E-11
 -1       117 1.45715E-08 1.66576E-07-1.93644E-18
 -1       118 7.06259E-09 1.37626E-07 4.25700E-11
 -1       119 1.41503E-08 1.37695E-07 4.73362E-11
 -1       120 7.06438E-09 1.37664E-07-1.60808E-18
 -1       121 1.47690E-08 1.96166E-07 5.31485E-11
 -1       122 1.41459E-08 1.37657E-07-9.65659E-11
 -1       123 1.47614E-08 1.96059E-07 2.32890E-11
 -1       124 7.36408E-09 1.96091E-07 4.28050E-12
 -1       125 1.45656E-08 1.66553E-07-3.44072E-11
 -1       126 1.41503E-08 1.37695E-07-4.73362E-11
 -1       127 7.06259E-09 1.37626E-07-4.25700E-11
 -1       128 1.23441E-08 8.40824E-08 1.77667E-10
 -1       129 1.23486E-08 8.41681E-08-1.00536E-18
 -1       130 1.33658E-08 1.09962E-07 1.37879E-10
 -1       131 1.33716E-08 1.10035E-07-1.30381E-18
 -1       132 6.15988E-09 8.40112E-08 9.03268E-11
 -1       133 1.23488E-08 8.41466E-08 8.90534E-11
 -1       134 6.16482E-09 8.40994E-08-9.98724E-19
 -1       135 1.23441E-08 8.40824E-08-1.77667E-10
 -1       136 1.33658E-08 1.09962E-07-1.37879E-10
 -1       137 1.23488E-08 8.41466E-08-8.90534E-11
 -1       138 6.15988E-09 8.40112E-08-9.03268E-11
 -1       139 9.34907E-09 4.00922E-08 2.68264E-10
 -1       140 9.35829E-09 4.02275E-08-4.86569E-19
 -1       141 1.09663E-08 6.05917E-08 2.24144E-10
 -1       142 1.09709E-08 6.07033E-08-7.29969E-19
 -1       143 4.66267E-09 3.99983E-08 1.33762E-10
 -1       144 9.35624E-09 4.01904E-08 1.34039E-10
 -1       145 4.66948E-09 4.01324E-08-4.83325E-19
 -1       146 9.34907E-09 4.00922E-08-2.68264E-10
 -1       147 1.09663E-08 6.05917E-08-2.24144E-10
 -1       148 9.35624E-09 4.01904E-08-1.34039E-10
 -1       149 4.66267E-09 3.99983E-08-1.33762E-10
 -1       150 5.13973E-09 1.04985E-08 3.17804E-10
 -1       151 5.17077E-09 1.06632E-08-1.29633E-19
 -1       152 7.36972E-09 2.32027E-08 3.16305E-10
 -1       153 7.37067E-09 2.33599E-08-2.83845E-19
 -1       154 2.55644E-09 1.03635E-08 1.59135E-10
 -1       155 5.15633E-09 1.06396E-08 1.58615E-10
 -1       156 2.57234E-09 1.05261E-08-1.29201E-19
 -1       157 5.13973E-09 1.04985E-08-3.17804E-10
 -1       158 7.36972E-09 2.32027E-08-3.16305E-10
 -1       159 5.15633E-09 1.06396E-08-1.58615E-10
 -1       160 2.55644E-09 1.03635E-08-1.59135E-10
 -1       161 0.00000E+00 0.00000E+00 0.00000E+00
 -1       162 0.00000E+00 0.00000E+00 0.00000E+00
 -1       163 2.56589E-09 2.68048E-09 4.31926E-10
 -1       164 2.53845E-09 2.88929E-09-3.21006E-20
 -1       165 0.00000E+00 0.00000E+00 0.00000E+00
 -1       166 0.00000E+00 0.00000E+00 0.00000E+00
 -1       167 0.00000E+00 0.00000E+00 0.00000E+00
 -1       168 0.00000E+00 0.00000E+00 0.00000E+00
 -1       169 2.56589E-09 2.68048E-09-4.31926E-10
 -1       170 0.00000E+00 0.00000E+00 0.00000E+00
 -1       171 0.00000E+00 0.00000E+00 0.00000E+00
 -3
    1PSTEP                         2           1           1          
  100CL  101 1.000000000         171                     0    1           1
 -4  STRESS      6    1
 -5  SXX         1    4    1    1
 -5  SYY         1    4    2    2
 -5  SZZ         1    4    3    3
 -5  SXY         1    4    1    2
 -5  SYZ         1    4    2    3
 -5  SZX         1    4    3    1
 -1         1-6.18924E-01 6.77345E+01-6.38152E+00 2.07916E+01-2.04318E+01 8.78939E+00
 -1         2-6.37552E-11-1.59716E-10 1.45057E-11 3.36497E+01-6.21827E+00-9.27091E-11
 -1         3 1.01680E-10 2.67001E-10 2.77457E-11 2.44040E+01 5.47566E-11-1.42316E-10
 -1         4-2.28175E+01-1.49940E+01-2.73470E+01 1.26861E+01-4.65223E-11-2.29138E-10
 -1         5-1.18639E+02-3.29200E+00 3.56124E+00 1.50299E+01-8.01017E-01 1.33969E+00
 -1         6-7.65547E-10 2.11713E-10 5.22228E-11 3.12198E+01 1.29845E+00-1.38121E-10
 -1         7 4.17243E-11 2.11761E-10 1.36752E-10 2.91914E+01-6.21747E-11-2.85445E-10
 -1         8-1.20722E+02-2.25128E+00 2.19034E-01 1.52498E+01-3.63876E-11-2.30796E-10
 -1         9 1.47361E+01 5.95374E+01 1.79420E+01 2.70367E+01-1.12172E+01 1.33418E+00
 -1        10-8.43348E-12 9.11538E-12-9.95432E-12 2.83215E+01-8.15929E+00-1.20868E-10
 -1        11-5.58040E+00-2.62861E-02-7.65649E-01 1.90259E+01 2.58766E-11-1.69137E-10
 -1        12-2.06218E+01 5.95168E+00-2.56602E+01 1.41987E+01-1.28463E+01 7.23940E+00
 -1        13-6.17930E+01 6.44143E+00-4.71292E+00 6.56683E-03-2.63573E-01 2.80446E+00
 -1        14-3.55968E-10-2.34737E-11 5.36193E-12 1.59542E+01-2.52732E+00 3.03372E-11
 -1        15-1.35429E-11 3.97002E-11-2.03103E-11 8.11221E+00 1.10151E-12-6.90259E-11
 -1        16-5.97768E+01 1.43692E+00-1.86787E+00-4.21262E+00 4.98002E-12-1.26279E-10
 -1        17-5.82359E+01 1.59572E+00 7.94244E-01 2.33532E+01-3.02985E-01 2.70904E-01
 -1        18-3.93720E-10 1.42315E-10 7.18676E-11 2.94701E+01 1.48125E+00-2.13220E-10
 -1        19-6.25030E+01-4.10473E+00-3.71086E+00 2.26950E+01-3.15937E-11-2.58108E-10
 -1        20-1.17498E+02 2.53186E+00 4.13743E+00 1.37283E+01-3.21473E+00 1.14902E+00
 -1        21-5.93854E-11-2.82576E-10-4.72120E-11 3.36497E+01 6.21827E+00-9.93164E-11
 -1        22-6.18924E-01 6.77345E+01-6.38152E+00 2.07916E+01 2.04318E+01-8.78939E+00
 -1        23 7.69067E-10 1.13254E-10 3.79170E-11 3.12198E+01-1.29845E+00-1.44364E-10
 -1        24-1.18639E+02-3.29200E+00 3.56124E+00 1.50299E+01 8.01017E-01-1.33969E+00
 -1        25 1.69463E-11-4.79685E-11-1.35497E-11 2.83215E+01 8.15929E+00-1.21976E-10
 -1        26 1.47361E+01 5.95374E+01 1.79420E+01 2.70367E+01 1.12172E+01-1.33418E+00
 -1        27-2.06218E+01 5.95168E+00-2.56602E+01 1.41987E+01 1.28463E+01-7.23940E+00
 -1        28 3.36399E-10 4.31335E-11 2.47002E-11 1.59542E+01 2.52732E+00 2.11605E-11
 -1        29-6.17930E+01 6.44143E+00-4.71292E+00 6.56683E-03 2.63573E-01-2.80446E+00
 -1        30 3.86776E-10 1.10460E-10 5.83833E-11 2.94701E+01-1.48125E+00-2.22853E-10
 -1        31-5.82359E+01 1.59572E+00 7.94244E-01 2.33532E+01 3.02985E-01-2.70904E-01
 -1        32-1.17498E+02 2.53186E+00 4.13743E+00 1.37283E+01 3.21473E+00-1.14902E+00
 -1        33-2.38229E+02 5.24510E+00 8.18638E-01 1.49017E+01-1.01310E-01 1.13281E+00
 -1        34-2.42087E-09-1.38250E-10 5.30720E-11 3.22471E+01 1.70491E-01-1.90055E-10
 -1        35-3.29002E-11 2.79856E-11-4.11296E-11 2.82061E+01 2.54509E-11-3.84705E-10
 -1        36-2.40119E+02 1.65700E+00-1.21273E-01 1.47345E+01-3.44701E-11-9.65047E-11
 -1        37-1.81084E+02-3.40540E+00 3.87894E-01-2.63111E+00 1.06815E+00 6.55429E-01
 -1        38-1.61559E-09-4.74337E-11 1.66215E-11 1.30196E+01 8.24653E-01 3.86819E-11
 -1        39-4.52060E-11-2.69729E-13-5.97711E-12 9.62997E+00 1.51491E-12-1.30873E-10
 -1        40-1.79514E+02 9.28296E-01 9.95974E-01-4.53233E+00 2.21456E-11 9.18655E-11
 -1        41-1.19329E+02 1.87758E+00 7.21214E-01 2.39961E+01 1.74204E-01 2.53198E-01
 -1        42-1.21798E-09-2.14693E-11 8.89411E-12 2.94516E+01-4.86054E-01-2.90897E-10
 -1        43-1.20077E+02 2.58435E-01 3.62719E-01 2.18252E+01-4.58040E-11-2.63309E-10
 -1        44-2.39796E+02 2.03566E+00-2.59402E-01 1.42208E+01-6.21667E-02 9.96018E-01
 -1        45 2.34055E-09 3.12275E-11-2.97812E-11 3.22471E+01-1.70491E-01-1.89250E-10
 -1        46-2.38229E+02 5.24510E+00 8.18638E-01 1.49017E+01 1.01310E-01-1.13281E+00
 -1        47 1.52261E-09 3.74452E-11-1.77062E-11 1.30196E+01-8.24653E-01 4.67389E-11
 -1        48-1.81084E+02-3.40540E+00 3.87894E-01-2.63111E+00-1.06815E+00-6.55429E-01
 -1        49 1.15633E-09 2.59460E-11-2.59804E-11 2.94516E+01 4.86054E-01-2.93541E-10
 -1        50-1.19329E+02 1.87758E+00 7.21214E-01 2.39961E+01-1.74204E-01-2.53198E-01
 -1        51-2.39796E+02 2.03566E+00-2.59402E-01 1.42208E+01 6.21667E-02-9.96018E-01
 -1        52-3.64395E+02-1.21467E+01-5.50987E+00 1.53735E+01-1.89660E+00 1.40315E+00
 -1        53-4.15540E-09-1.00831E-10-1.61117E-10 3.26737E+01-2.20351E+00-1.88484E-10
 -1        54-4.15519E-11 4.38645E-11 1.53921E-11 2.77585E+01 1.33208E-11-3.75088E-10
 -1        55-3.66718E+02-1.20826E+01-6.48514E+00 1.33279E+01-5.76046E-11-1.37861E-10
 -1        56-3.00362E+02-1.75400E+00-1.07623E+00-2.59715E+00-1.00489E+00 1.24066E+00
 -1        57-3.23663E-09-1.34628E-11 9.46065E-12 1.35457E+01-9.80263E-01 5.70323E-11
 -1        58-5.91029E-11-8.98170E-12-2.09724E-11 9.63158E+00 1.99849E-11-1.28051E-10
 -1        59-3.00155E+02-2.64492E+00-1.07838E+00-3.69685E+00-2.32568E-11 1.63435E-10
 -1        60-1.81221E+02-3.49396E+00-1.83274E+00 2.47020E+01-2.06713E+00 3.37712E-01
 -1        61-2.07931E-09 4.54747E-13-3.02807E-11 2.91493E+01-2.38624E-02-2.92198E-10
 -1        62-1.82338E+02-3.05906E+00-2.18619E+00 2.12484E+01-1.12503E-11-2.69921E-10
 -1        63-3.65506E+02-1.17819E+01-5.87774E+00 1.32375E+01 8.51688E-02 7.69271E-01
 -1        64 4.02877E-09 8.67251E-11 1.40503E-10 3.26737E+01 2.20351E+00-1.86509E-10
 -1        65-3.64395E+02-1.21467E+01-5.50987E+00 1.53735E+01 1.89660E+00-1.40315E+00
 -1        66 3.15187E-09 2.37748E-11 4.26197E-11 1.35457E+01 9.80263E-01 5.22292E-11
 -1        67-3.00362E+02-1.75400E+00-1.07623E+00-2.59715E+00 1.00489E+00-1.24066E+00
 -1        68 1.98094E-09 5.16922E-11 4.19391E-11 2.91493E+01 2.38624E-02-2.87935E-10
 -1        69-1.81221E+02-3.49396E+00-1.83274E+00 2.47020E+01 2.06713E+00-3.37712E-01
 -1        70-3.65506E+02-1.17819E+01-5.87774E+00 1.32375E+01-8.51688E-02-7.69271E-01
 -1        71-5.00672E+02-1.48810E+00-2.30698E+01 8.64407E+00 1.27954E+01 8.61174E+00
 -1        72-6.03248E-09-2.92728E-10-2.24256E-11 3.20518E+01 1.21437E+01 6.90979E-12
 -1        73-5.66152E-11 2.20624E-12-1.83364E-12 2.07138E+01 7.81175E-12-3.05835E-10
 -1        74-5.07033E+02-2.24586E+00-2.61230E+01-2.47482E+00 1.53218E-10-1.57018E-10
 -1        75-4.14697E+02 1.41594E+01 6.66792E+00-3.36214E+00 2.97594E+00 6.40561E-01
 -1        76-4.78137E-09 9.04485E-11 1.82729E-10 1.30502E+01 3.09170E+00 5.75142E-11
 -1        77-4.81153E-11 1.87508E-11 5.71099E-12 1.10210E+01-4.29778E-12-1.46932E-10
 -1        78-4.12103E+02 1.50852E+01 7.11649E+00-3.84443E+00 3.08551E-11 1.00349E-10